<?xml version="1.0" encoding="UTF-8"?>

<!-- generated on 2025-09-23 20:47:18 by Eclipse SUMO GUI Version 1.24.0
<sumoConfiguration xmlns:xsi="http://www.w3.org/2001/XMLSchema-instance" xsi:noNamespaceSchemaLocation="http://sumo.dlr.de/xsd/sumoConfiguration.xsd">

    <input>
        <net-file value="./osm.net.xml.gz"/>
        <route-files value="./osm_pt.rou.xml,./osm.bus.trips.xml,./osm.motorcycle.trips.xml,./osm.passenger.trips.xml,./osm.truck.trips.xml"/>
        <additional-files value="./osm.poly.xml.gz,./osm_stops.add.xml,./output.add.xml"/>
    </input>

    <output>
        <tripinfo-output value="./tripinfos.xml"/>
        <stop-output value="./stopinfos.xml"/>
        <statistic-output value="./stats.xml"/>
    </output>

    <processing>
        <ignore-route-errors value="true"/>
        <time-to-teleport value="-1"/>
        <tls.actuated.jam-threshold value="30"/>
    </processing>

    <routing>
        <device.rerouting.adaptation-steps value="18"/>
        <device.rerouting.adaptation-interval value="10"/>
    </routing>

    <report>
        <verbose value="true"/>
        <duration-log.statistics value="true"/>
        <no-step-log value="true"/>
    </report>

    <traci_server>
        <remote-port value="58433"/>
    </traci_server>

    <gui_only>
        <gui-settings-file value="./osm.view.xml"/>
        <quit-on-end value="true"/>
    </gui_only>

</sumoConfiguration>
-->

<meandata xmlns:xsi="http://www.w3.org/2001/XMLSchema-instance" xsi:noNamespaceSchemaLocation="http://sumo.dlr.de/xsd/meandata_file.xsd">
    <interval begin="0.00" end="2600.00" id="wizard_example">
        <edge id="-1012133718#0" sampledSeconds="34914.01" traveltime="579.11" overlapTraveltime="581.86" density="123.53" laneDensity="123.53" occupancy="41.16" waitingTime="34265.00" timeLoss="34419.21" speed="0.19" speedRelative="0.01" departed="3" arrived="0" entered="65" left="50" laneChangedFrom="0" laneChangedTo="0"/>
        <edge id="-1012133718#1" sampledSeconds="3664.14" traveltime="57.73" overlapTraveltime="52.77" density="166.78" laneDensity="166.78" occupancy="36.73" waitingTime="3591.00" timeLoss="3610.07" speed="0.20" speedRelative="0.01" departed="10" arrived="0" entered="57" left="65" laneChangedFrom="0" laneChangedTo="0"/>
        <edge id="-1012133718#2" sampledSeconds="15704.35" traveltime="257.55" overlapTraveltime="256.47" density="139.53" laneDensity="139.53" occupancy="34.86" waitingTime="15421.00" timeLoss="15495.97" speed="0.18" speedRelative="0.01" departed="6" arrived="0" entered="60" left="57" laneChangedFrom="0" laneChangedTo="0"/>
        <edge id="-1012133718#3" sampledSeconds="4894.48" traveltime="53.63" overlapTraveltime="80.15" density="117.88" laneDensity="117.88" occupancy="33.45" waitingTime="4747.00" timeLoss="4798.68" speed="0.24" speedRelative="0.02" departed="7" arrived="0" entered="56" left="61" laneChangedFrom="0" laneChangedTo="0"/>
        <edge id="-1012133718#4" sampledSeconds="1619.36" traveltime="44.31" overlapTraveltime="30.78" density="167.43" laneDensity="167.43" occupancy="36.61" waitingTime="1560.00" timeLoss="1588.44" speed="0.19" speedRelative="0.01" departed="30" arrived="0" entered="27" left="56" laneChangedFrom="0" laneChangedTo="0"/>
        <edge id="-1012133721" sampledSeconds="0.00" departed="0" arrived="0" entered="0" left="0" laneChangedFrom="0" laneChangedTo="0"/>
        <edge id="-1012133722" sampledSeconds="0.00" departed="0" arrived="0" entered="0" left="0" laneChangedFrom="0" laneChangedTo="0"/>
        <edge id="-1012133729" sampledSeconds="30543.89" traveltime="489.65" overlapTraveltime="492.95" density="97.39" laneDensity="97.39" occupancy="42.16" waitingTime="29391.00" timeLoss="29958.88" speed="0.25" speedRelative="0.02" departed="7" arrived="2" entered="64" left="51" laneChangedFrom="0" laneChangedTo="0"/>
        <edge id="-1014633356" sampledSeconds="0.00" departed="0" arrived="0" entered="0" left="0" laneChangedFrom="0" laneChangedTo="0"/>
        <edge id="-103759573" sampledSeconds="4769.53" traveltime="805.58" overlapTraveltime="715.85" density="145.82" laneDensity="145.82" occupancy="53.10" waitingTime="4749.00" timeLoss="4759.63" speed="0.02" speedRelative="0.00" departed="10" arrived="0" entered="0" left="8" laneChangedFrom="0" laneChangedTo="0"/>
        <edge id="-103765643#0" sampledSeconds="15278.48" traveltime="493.49" overlapTraveltime="511.03" density="132.08" laneDensity="132.08" occupancy="66.63" waitingTime="14956.00" timeLoss="15159.15" speed="0.10" speedRelative="0.01" departed="0" arrived="0" entered="33" left="27" laneChangedFrom="0" laneChangedTo="0"/>
        <edge id="-103765643#1" sampledSeconds="12415.56" traveltime="349.90" overlapTraveltime="338.42" density="189.64" laneDensity="189.64" occupancy="53.77" waitingTime="12213.00" timeLoss="12339.48" speed="0.08" speedRelative="0.01" departed="2" arrived="0" entered="36" left="33" laneChangedFrom="0" laneChangedTo="0"/>
        <edge id="-103765643#3" sampledSeconds="19538.61" traveltime="571.97" overlapTraveltime="560.08" density="182.80" laneDensity="182.80" occupancy="48.95" waitingTime="19252.00" timeLoss="19425.37" speed="0.08" speedRelative="0.01" departed="0" arrived="0" entered="38" left="30" laneChangedFrom="0" laneChangedTo="0"/>
        <edge id="-109505204#0" sampledSeconds="1351.30" traveltime="0.07" overlapTraveltime="28.76" density="212.77" laneDensity="212.77" occupancy="51.87" waitingTime="1290.00" timeLoss="1325.39" speed="0.17" speedRelative="0.01" departed="16" arrived="1" entered="55" left="70" laneChangedFrom="0" laneChangedTo="0"/>
        <edge id="-109505204#2" sampledSeconds="309.81" traveltime="0.03" overlapTraveltime="3.65" density="212.77" laneDensity="212.77" occupancy="11.79" waitingTime="230.00" timeLoss="268.30" speed="1.45" speedRelative="0.07" departed="0" arrived="0" entered="106" left="106" laneChangedFrom="0" laneChangedTo="0"/>
        <edge id="-109505207#0" sampledSeconds="21348.46" traveltime="1135.55" overlapTraveltime="1146.32" density="154.46" laneDensity="154.46" occupancy="54.02" waitingTime="20743.00" timeLoss="21268.56" speed="0.05" speedRelative="0.00" departed="4" arrived="1" entered="19" left="13" laneChangedFrom="0" laneChangedTo="0"/>
        <edge id="-109505207#1" sampledSeconds="18255.95" traveltime="711.49" overlapTraveltime="722.46" density="121.99" laneDensity="121.99" occupancy="46.43" waitingTime="17843.00" timeLoss="18142.70" speed="0.08" speedRelative="0.01" departed="3" arrived="2" entered="27" left="19" laneChangedFrom="0" laneChangedTo="0"/>
        <edge id="-109505207#2" sampledSeconds="11472.67" traveltime="318.24" overlapTraveltime="333.46" density="73.62" laneDensity="73.62" occupancy="42.58" waitingTime="11201.00" timeLoss="11309.41" speed="0.20" speedRelative="0.01" departed="4" arrived="6" entered="36" left="27" laneChangedFrom="0" laneChangedTo="0"/>
        <edge id="-109505207#3" sampledSeconds="16128.17" traveltime="397.67" overlapTraveltime="398.50" density="110.47" laneDensity="110.47" occupancy="34.08" waitingTime="15718.00" timeLoss="15946.58" speed="0.15" speedRelative="0.01" departed="8" arrived="1" entered="38" left="35" laneChangedFrom="0" laneChangedTo="0"/>
        <edge id="-109505207#4" sampledSeconds="22687.17" traveltime="503.16" overlapTraveltime="509.08" density="91.26" laneDensity="91.26" occupancy="36.23" waitingTime="22219.00" timeLoss="22359.54" speed="0.20" speedRelative="0.01" departed="10" arrived="0" entered="43" left="38" laneChangedFrom="0" laneChangedTo="0"/>
        <edge id="-109505208#0" sampledSeconds="3511.77" traveltime="53.95" overlapTraveltime="54.08" density="33.61" laneDensity="33.61" occupancy="11.22" waitingTime="3159.00" timeLoss="3280.29" speed="0.81" speedRelative="0.06" departed="17" arrived="0" entered="51" left="62" laneChangedFrom="0" laneChangedTo="0"/>
        <edge id="-109505208#1" sampledSeconds="453.40" traveltime="8.44" overlapTraveltime="8.77" density="1.79" laneDensity="1.79" occupancy="0.71" waitingTime="0.00" timeLoss="72.60" speed="11.59" speedRelative="0.83" departed="9" arrived="1" entered="43" left="51" laneChangedFrom="0" laneChangedTo="0"/>
        <edge id="-109505208#2" sampledSeconds="7208.77" traveltime="141.46" overlapTraveltime="136.08" density="132.22" laneDensity="132.22" occupancy="29.58" waitingTime="6948.00" timeLoss="7111.33" speed="0.17" speedRelative="0.01" departed="6" arrived="2" entered="47" left="47" laneChangedFrom="0" laneChangedTo="0"/>
        <edge id="-109505208#3" sampledSeconds="6095.07" traveltime="122.28" overlapTraveltime="120.38" density="107.68" laneDensity="107.68" occupancy="30.41" waitingTime="5982.00" timeLoss="6005.07" speed="0.20" speedRelative="0.01" departed="5" arrived="1" entered="47" left="47" laneChangedFrom="0" laneChangedTo="0"/>
        <edge id="-109505208#4" sampledSeconds="13363.93" traveltime="265.70" overlapTraveltime="274.03" density="79.69" laneDensity="79.69" occupancy="41.82" waitingTime="13028.00" timeLoss="13117.03" speed="0.25" speedRelative="0.02" departed="8" arrived="0" entered="47" left="47" laneChangedFrom="0" laneChangedTo="0"/>
        <edge id="-1103309476" sampledSeconds="0.00" departed="0" arrived="0" entered="0" left="0" laneChangedFrom="0" laneChangedTo="0"/>
        <edge id="-1117713207#1" sampledSeconds="1400.42" traveltime="0.98" overlapTraveltime="39.01" density="212.77" laneDensity="212.77" occupancy="53.78" waitingTime="1351.00" timeLoss="1370.42" speed="0.13" speedRelative="0.01" departed="10" arrived="1" entered="43" left="52" laneChangedFrom="0" laneChangedTo="0"/>
        <edge id="-116690479#0" sampledSeconds="26775.31" traveltime="1534.99" overlapTraveltime="1563.41" density="73.81" laneDensity="73.81" occupancy="27.83" waitingTime="26494.00" timeLoss="26597.83" speed="0.09" speedRelative="0.01" departed="12" arrived="1" entered="18" left="6" laneChangedFrom="0" laneChangedTo="0"/>
        <edge id="-116690479#1" sampledSeconds="2547.22" traveltime="115.69" overlapTraveltime="120.45" density="11.88" laneDensity="11.88" occupancy="7.00" waitingTime="2356.00" timeLoss="2413.92" speed="0.73" speedRelative="0.05" departed="20" arrived="1" entered="4" left="18" laneChangedFrom="0" laneChangedTo="0"/>
        <edge id="-116690479#2" sampledSeconds="2110.70" traveltime="108.58" overlapTraveltime="100.80" density="212.77" laneDensity="212.77" occupancy="55.48" waitingTime="2057.00" timeLoss="2093.09" speed="0.06" speedRelative="0.00" departed="3" arrived="0" entered="16" left="18" laneChangedFrom="0" laneChangedTo="0"/>
        <edge id="-116690479#3" sampledSeconds="14016.99" traveltime="517.60" overlapTraveltime="600.95" density="52.70" laneDensity="52.70" occupancy="20.27" waitingTime="13690.49" timeLoss="13832.70" speed="0.18" speedRelative="0.01" departed="21" arrived="0" entered="9" left="17" laneChangedFrom="0" laneChangedTo="0"/>
        <edge id="-116690480#0" sampledSeconds="27.69" traveltime="0.45" overlapTraveltime="1.45" density="5.32" laneDensity="5.32" occupancy="0.67" waitingTime="0.00" timeLoss="9.35" speed="3.83" speedRelative="0.28" departed="0" arrived="5" entered="20" left="15" laneChangedFrom="0" laneChangedTo="0"/>
        <edge id="-116690480#1" sampledSeconds="823.37" traveltime="36.27" overlapTraveltime="36.75" density="1.61" laneDensity="1.61" occupancy="0.65" waitingTime="426.00" timeLoss="499.08" speed="5.48" speedRelative="0.39" departed="17" arrived="0" entered="6" left="20" laneChangedFrom="0" laneChangedTo="0"/>
        <edge id="-116690480#2" sampledSeconds="318.84" traveltime="0.72" overlapTraveltime="2.73" density="53.09" laneDensity="53.09" occupancy="9.10" waitingTime="105.00" timeLoss="223.72" speed="3.02" speedRelative="0.22" departed="7" arrived="1" entered="148" left="154" laneChangedFrom="0" laneChangedTo="0"/>
        <edge id="-116690593#0" sampledSeconds="0.00" departed="0" arrived="0" entered="0" left="0" laneChangedFrom="0" laneChangedTo="0"/>
        <edge id="-116690593#1" sampledSeconds="12141.77" traveltime="858.57" overlapTraveltime="868.51" density="106.21" laneDensity="106.21" occupancy="30.13" waitingTime="12021.00" timeLoss="12084.95" speed="0.05" speedRelative="0.00" departed="13" arrived="0" entered="7" left="11" laneChangedFrom="0" laneChangedTo="0"/>
        <edge id="-116690596#0" sampledSeconds="5934.10" traveltime="369.75" overlapTraveltime="465.74" density="16.21" laneDensity="16.21" occupancy="4.79" waitingTime="5749.00" timeLoss="5846.72" speed="0.31" speedRelative="0.01" departed="14" arrived="0" entered="0" left="8" laneChangedFrom="0" laneChangedTo="0"/>
        <edge id="-116690596#1" sampledSeconds="4386.76" traveltime="643.54" overlapTraveltime="625.64" density="104.15" laneDensity="104.15" occupancy="22.96" waitingTime="4362.00" timeLoss="4379.23" speed="0.03" speedRelative="0.00" departed="7" arrived="2" entered="2" left="4" laneChangedFrom="0" laneChangedTo="0"/>
        <edge id="-116690596#2" sampledSeconds="12933.57" traveltime="1415.64" overlapTraveltime="1454.07" density="82.40" laneDensity="82.40" occupancy="26.62" waitingTime="12850.00" timeLoss="12903.65" speed="0.04" speedRelative="0.00" departed="11" arrived="0" entered="3" left="4" laneChangedFrom="0" laneChangedTo="0"/>
        <edge id="-117467837" sampledSeconds="3603.39" traveltime="392.99" overlapTraveltime="389.03" density="66.28" laneDensity="66.28" occupancy="20.37" waitingTime="3549.00" timeLoss="3583.94" speed="0.06" speedRelative="0.00" departed="6" arrived="1" entered="5" left="7" laneChangedFrom="0" laneChangedTo="0"/>
        <edge id="-1222974658" sampledSeconds="0.00" departed="0" arrived="0" entered="0" left="0" laneChangedFrom="0" laneChangedTo="0"/>
        <edge id="-1222974661" sampledSeconds="5020.86" traveltime="305.72" overlapTraveltime="309.17" density="25.40" laneDensity="25.40" occupancy="9.04" waitingTime="4886.00" timeLoss="4960.86" speed="0.26" speedRelative="0.01" departed="17" arrived="0" entered="2" left="12" laneChangedFrom="0" laneChangedTo="0"/>
        <edge id="-1239429251#0" sampledSeconds="0.00" departed="0" arrived="0" entered="0" left="0" laneChangedFrom="0" laneChangedTo="0"/>
        <edge id="-1239429251#1" sampledSeconds="0.00" departed="0" arrived="0" entered="0" left="0" laneChangedFrom="0" laneChangedTo="0"/>
        <edge id="-1239429251#2" sampledSeconds="0.00" departed="0" arrived="0" entered="0" left="0" laneChangedFrom="0" laneChangedTo="0"/>
        <edge id="-1239429252#0" sampledSeconds="0.00" departed="0" arrived="0" entered="0" left="0" laneChangedFrom="0" laneChangedTo="0"/>
        <edge id="-1239429252#1" sampledSeconds="0.00" departed="0" arrived="0" entered="0" left="0" laneChangedFrom="0" laneChangedTo="0"/>
        <edge id="-1239429253" sampledSeconds="0.00" departed="0" arrived="0" entered="0" left="0" laneChangedFrom="0" laneChangedTo="0"/>
        <edge id="-1239429254" sampledSeconds="0.00" departed="0" arrived="0" entered="0" left="0" laneChangedFrom="0" laneChangedTo="0"/>
        <edge id="-1239429255" sampledSeconds="0.00" departed="0" arrived="0" entered="0" left="0" laneChangedFrom="0" laneChangedTo="0"/>
        <edge id="-1239429256" sampledSeconds="0.00" departed="0" arrived="0" entered="0" left="0" laneChangedFrom="0" laneChangedTo="0"/>
        <edge id="-1239429257" sampledSeconds="0.00" departed="0" arrived="0" entered="0" left="0" laneChangedFrom="0" laneChangedTo="0"/>
        <edge id="-1239429258#0" sampledSeconds="0.00" departed="0" arrived="0" entered="0" left="0" laneChangedFrom="0" laneChangedTo="0"/>
        <edge id="-1239429258#1" sampledSeconds="0.00" departed="0" arrived="0" entered="0" left="0" laneChangedFrom="0" laneChangedTo="0"/>
        <edge id="-1239429258#10" sampledSeconds="0.00" departed="0" arrived="0" entered="0" left="0" laneChangedFrom="0" laneChangedTo="0"/>
        <edge id="-1239429258#11" sampledSeconds="0.00" departed="0" arrived="0" entered="0" left="0" laneChangedFrom="0" laneChangedTo="0"/>
        <edge id="-1239429258#2" sampledSeconds="0.00" departed="0" arrived="0" entered="0" left="0" laneChangedFrom="0" laneChangedTo="0"/>
        <edge id="-1239429258#3" sampledSeconds="0.00" departed="0" arrived="0" entered="0" left="0" laneChangedFrom="0" laneChangedTo="0"/>
        <edge id="-1239429258#4" sampledSeconds="0.00" departed="0" arrived="0" entered="0" left="0" laneChangedFrom="0" laneChangedTo="0"/>
        <edge id="-1239429258#5" sampledSeconds="0.00" departed="0" arrived="0" entered="0" left="0" laneChangedFrom="0" laneChangedTo="0"/>
        <edge id="-1239429258#6" sampledSeconds="0.00" departed="0" arrived="0" entered="0" left="0" laneChangedFrom="0" laneChangedTo="0"/>
        <edge id="-1239429258#7" sampledSeconds="0.00" departed="0" arrived="0" entered="0" left="0" laneChangedFrom="0" laneChangedTo="0"/>
        <edge id="-1239429258#8" sampledSeconds="0.00" departed="0" arrived="0" entered="0" left="0" laneChangedFrom="0" laneChangedTo="0"/>
        <edge id="-1239429258#9" sampledSeconds="0.00" departed="0" arrived="0" entered="0" left="0" laneChangedFrom="0" laneChangedTo="0"/>
        <edge id="-1239429260" sampledSeconds="0.00" departed="0" arrived="0" entered="0" left="0" laneChangedFrom="0" laneChangedTo="0"/>
        <edge id="-1239614029" sampledSeconds="0.00" departed="0" arrived="0" entered="0" left="0" laneChangedFrom="0" laneChangedTo="0"/>
        <edge id="-1303757445" sampledSeconds="0.00" departed="0" arrived="0" entered="0" left="0" laneChangedFrom="0" laneChangedTo="0"/>
        <edge id="-1304287973" sampledSeconds="11323.02" traveltime="1785.79" overlapTraveltime="1864.93" density="103.35" laneDensity="103.35" occupancy="35.26" waitingTime="11279.00" timeLoss="11310.61" speed="0.02" speedRelative="0.00" departed="8" arrived="0" entered="2" left="3" laneChangedFrom="0" laneChangedTo="0"/>
        <edge id="-1304287974" sampledSeconds="10263.59" traveltime="1514.85" overlapTraveltime="1528.34" density="102.35" laneDensity="102.35" occupancy="31.72" waitingTime="10207.00" timeLoss="10248.08" speed="0.03" speedRelative="0.00" departed="10" arrived="0" entered="1" left="4" laneChangedFrom="0" laneChangedTo="0"/>
        <edge id="-1305093054" sampledSeconds="1890.58" traveltime="1888.06" overlapTraveltime="667.26" density="212.77" laneDensity="212.77" occupancy="72.71" waitingTime="1888.00" timeLoss="1889.64" speed="0.00" speedRelative="0.00" departed="3" arrived="0" entered="1" left="3" laneChangedFrom="0" laneChangedTo="0"/>
        <edge id="-1305093056" sampledSeconds="2374.30" traveltime="0.03" overlapTraveltime="64.34" density="212.77" laneDensity="212.77" occupancy="91.27" waitingTime="2347.00" timeLoss="2364.60" speed="0.08" speedRelative="0.00" departed="2" arrived="0" entered="45" left="47" laneChangedFrom="0" laneChangedTo="0"/>
        <edge id="-1317811160" sampledSeconds="0.00" departed="0" arrived="0" entered="0" left="0" laneChangedFrom="0" laneChangedTo="0"/>
        <edge id="-1324287528#0" sampledSeconds="12936.77" traveltime="239.31" overlapTraveltime="244.86" density="116.55" laneDensity="116.55" occupancy="43.59" waitingTime="12489.00" timeLoss="12741.40" speed="0.19" speedRelative="0.01" departed="4" arrived="0" entered="53" left="50" laneChangedFrom="0" laneChangedTo="0"/>
        <edge id="-1324287528#1" sampledSeconds="1876.61" traveltime="42.50" overlapTraveltime="63.25" density="48.64" laneDensity="48.64" occupancy="54.42" waitingTime="1764.00" timeLoss="1814.97" speed="0.41" speedRelative="0.03" departed="8" arrived="1" entered="37" left="43" laneChangedFrom="0" laneChangedTo="0"/>
        <edge id="-1324287528#2" sampledSeconds="5115.71" traveltime="99.13" overlapTraveltime="98.48" density="123.75" laneDensity="123.75" occupancy="39.11" waitingTime="4996.00" timeLoss="5035.47" speed="0.19" speedRelative="0.01" departed="3" arrived="1" entered="51" left="50" laneChangedFrom="0" laneChangedTo="0"/>
        <edge id="-1324287528#3" sampledSeconds="1432.51" traveltime="0.02" overlapTraveltime="38.77" density="212.77" laneDensity="212.77" occupancy="55.05" waitingTime="1401.00" timeLoss="1416.31" speed="0.13" speedRelative="0.01" departed="7" arrived="0" entered="47" left="54" laneChangedFrom="0" laneChangedTo="0"/>
        <edge id="-1408953124#1" sampledSeconds="7569.55" traveltime="974.41" overlapTraveltime="1206.29" density="180.38" laneDensity="180.38" occupancy="60.89" waitingTime="7553.00" timeLoss="7559.62" speed="0.02" speedRelative="0.00" departed="0" arrived="0" entered="9" left="6" laneChangedFrom="0" laneChangedTo="0"/>
        <edge id="-1408953124#2" sampledSeconds="7525.52" traveltime="506.37" overlapTraveltime="892.59" density="150.36" laneDensity="150.36" occupancy="63.52" waitingTime="7503.00" timeLoss="7509.88" speed="0.03" speedRelative="0.00" departed="0" arrived="0" entered="11" left="9" laneChangedFrom="0" laneChangedTo="0"/>
        <edge id="-1408953126#0" sampledSeconds="12.33" traveltime="0.04" overlapTraveltime="1.16" density="47.44" laneDensity="47.44" occupancy="0.46" waitingTime="0.00" timeLoss="4.49" speed="2.69" speedRelative="0.19" departed="0" arrived="0" entered="12" left="12" laneChangedFrom="0" laneChangedTo="0"/>
        <edge id="-1408953128" sampledSeconds="6722.36" traveltime="269.86" overlapTraveltime="344.17" density="37.83" laneDensity="37.83" occupancy="16.12" waitingTime="6544.00" timeLoss="6618.59" speed="0.21" speedRelative="0.02" departed="25" arrived="0" entered="1" left="17" laneChangedFrom="0" laneChangedTo="0"/>
        <edge id="-226946947" sampledSeconds="2572.96" traveltime="5571.90" overlapTraveltime="2434.92" density="128.19" laneDensity="128.19" occupancy="90.94" waitingTime="2564.00" timeLoss="2571.25" speed="0.01" speedRelative="0.00" departed="3" arrived="0" entered="0" left="2" laneChangedFrom="0" laneChangedTo="0"/>
        <edge id="-226946949" sampledSeconds="37430.05" traveltime="2249.96" overlapTraveltime="2291.88" density="120.35" laneDensity="120.35" occupancy="54.28" waitingTime="37167.00" timeLoss="37277.46" speed="0.05" speedRelative="0.00" departed="26" arrived="0" entered="0" left="9" laneChangedFrom="0" laneChangedTo="0"/>
        <edge id="-227019974#0" sampledSeconds="5104.47" traveltime="606.09" overlapTraveltime="627.36" density="164.56" laneDensity="164.56" occupancy="57.63" waitingTime="5057.00" timeLoss="5092.23" speed="0.02" speedRelative="0.00" departed="4" arrived="0" entered="6" left="8" laneChangedFrom="0" laneChangedTo="0"/>
        <edge id="-227019974#1" sampledSeconds="21596.09" traveltime="2226.51" overlapTraveltime="2334.97" density="129.44" laneDensity="129.44" occupancy="62.84" waitingTime="21457.00" timeLoss="21549.38" speed="0.03" speedRelative="0.00" departed="12" arrived="0" entered="3" left="6" laneChangedFrom="0" laneChangedTo="0"/>
        <edge id="-227093824" sampledSeconds="0.00" departed="0" arrived="0" entered="0" left="0" laneChangedFrom="0" laneChangedTo="0"/>
        <edge id="-227100505#0" sampledSeconds="2.46" traveltime="0.03" overlapTraveltime="0.43" density="4.73" laneDensity="4.73" occupancy="0.09" waitingTime="0.00" timeLoss="1.46" speed="5.62" speedRelative="0.67" departed="3" arrived="0" entered="3" left="6" laneChangedFrom="0" laneChangedTo="0"/>
        <edge id="-227100505#1" sampledSeconds="29593.01" traveltime="879.29" overlapTraveltime="895.68" density="146.90" laneDensity="146.90" occupancy="59.42" waitingTime="28810.00" timeLoss="29267.84" speed="0.09" speedRelative="0.01" departed="3" arrived="0" entered="36" left="27" laneChangedFrom="0" laneChangedTo="0"/>
        <edge id="-227100506#0" sampledSeconds="0.00" departed="0" arrived="0" entered="0" left="0" laneChangedFrom="0" laneChangedTo="0"/>
        <edge id="-227100507#0" sampledSeconds="20499.51" traveltime="3794.92" overlapTraveltime="4661.01" density="130.97" laneDensity="130.97" occupancy="66.87" waitingTime="20408.00" timeLoss="20478.06" speed="0.01" speedRelative="0.00" departed="1" arrived="0" entered="8" left="2" laneChangedFrom="0" laneChangedTo="0"/>
        <edge id="-227100507#1" sampledSeconds="12770.17" traveltime="1046.24" overlapTraveltime="1044.35" density="177.83" laneDensity="177.83" occupancy="48.96" waitingTime="12671.00" timeLoss="12743.35" speed="0.03" speedRelative="0.00" departed="0" arrived="0" entered="14" left="9" laneChangedFrom="0" laneChangedTo="0"/>
        <edge id="-227106494" sampledSeconds="0.00" departed="0" arrived="0" entered="0" left="0" laneChangedFrom="0" laneChangedTo="0"/>
        <edge id="-227116687#0" sampledSeconds="0.00" departed="0" arrived="0" entered="0" left="0" laneChangedFrom="0" laneChangedTo="0"/>
        <edge id="-227116687#1" sampledSeconds="0.00" departed="0" arrived="0" entered="0" left="0" laneChangedFrom="0" laneChangedTo="0"/>
        <edge id="-227116687#2" sampledSeconds="0.00" departed="0" arrived="0" entered="0" left="0" laneChangedFrom="0" laneChangedTo="0"/>
        <edge id="-227124378#0" sampledSeconds="0.00" departed="0" arrived="0" entered="0" left="0" laneChangedFrom="0" laneChangedTo="0"/>
        <edge id="-227124378#1" sampledSeconds="0.00" departed="0" arrived="0" entered="0" left="0" laneChangedFrom="0" laneChangedTo="0"/>
        <edge id="-227124378#2" sampledSeconds="0.00" departed="0" arrived="0" entered="0" left="0" laneChangedFrom="0" laneChangedTo="0"/>
        <edge id="-227124378#3" sampledSeconds="0.00" departed="0" arrived="0" entered="0" left="0" laneChangedFrom="0" laneChangedTo="0"/>
        <edge id="-227124384#0" sampledSeconds="0.00" departed="0" arrived="0" entered="0" left="0" laneChangedFrom="0" laneChangedTo="0"/>
        <edge id="-227124384#1" sampledSeconds="0.00" departed="0" arrived="0" entered="0" left="0" laneChangedFrom="0" laneChangedTo="0"/>
        <edge id="-227124384#2" sampledSeconds="0.00" departed="0" arrived="0" entered="0" left="0" laneChangedFrom="0" laneChangedTo="0"/>
        <edge id="-227131720#0" sampledSeconds="88.79" traveltime="10.84" overlapTraveltime="11.13" density="0.28" laneDensity="0.28" occupancy="0.09" waitingTime="0.00" timeLoss="15.38" speed="11.35" speedRelative="0.82" departed="0" arrived="8" entered="8" left="0" laneChangedFrom="0" laneChangedTo="0"/>
        <edge id="-227131720#1" sampledSeconds="8321.10" traveltime="156.90" overlapTraveltime="158.36" density="29.55" laneDensity="29.55" occupancy="10.34" waitingTime="7691.00" timeLoss="7868.52" speed="0.71" speedRelative="0.05" departed="15" arrived="1" entered="44" left="43" laneChangedFrom="0" laneChangedTo="0"/>
        <edge id="-227131720#2" sampledSeconds="341.07" traveltime="7.41" overlapTraveltime="7.76" density="1.75" laneDensity="1.75" occupancy="0.70" waitingTime="0.00" timeLoss="81.72" speed="10.20" speedRelative="0.73" departed="17" arrived="1" entered="28" left="44" laneChangedFrom="0" laneChangedTo="0"/>
        <edge id="-227131721" sampledSeconds="0.00" departed="0" arrived="0" entered="0" left="0" laneChangedFrom="0" laneChangedTo="0"/>
        <edge id="-227131722#0" sampledSeconds="0.00" departed="0" arrived="0" entered="0" left="0" laneChangedFrom="0" laneChangedTo="0"/>
        <edge id="-227131722#1" sampledSeconds="0.00" departed="0" arrived="0" entered="0" left="0" laneChangedFrom="0" laneChangedTo="0"/>
        <edge id="-227131722#2" sampledSeconds="0.00" departed="0" arrived="0" entered="0" left="0" laneChangedFrom="0" laneChangedTo="0"/>
        <edge id="-227131722#3" sampledSeconds="0.00" departed="0" arrived="0" entered="0" left="0" laneChangedFrom="0" laneChangedTo="0"/>
        <edge id="-227131722#4" sampledSeconds="0.00" departed="0" arrived="0" entered="0" left="0" laneChangedFrom="0" laneChangedTo="0"/>
        <edge id="-227131722#5" sampledSeconds="0.00" departed="0" arrived="0" entered="0" left="0" laneChangedFrom="0" laneChangedTo="0"/>
        <edge id="-227131722#6" sampledSeconds="0.00" departed="0" arrived="0" entered="0" left="0" laneChangedFrom="0" laneChangedTo="0"/>
        <edge id="-227131725#0" sampledSeconds="0.00" departed="0" arrived="0" entered="0" left="0" laneChangedFrom="0" laneChangedTo="0"/>
        <edge id="-227131725#1" sampledSeconds="0.00" departed="0" arrived="0" entered="0" left="0" laneChangedFrom="0" laneChangedTo="0"/>
        <edge id="-227132713#0" sampledSeconds="0.00" departed="0" arrived="0" entered="0" left="0" laneChangedFrom="0" laneChangedTo="0"/>
        <edge id="-227132713#1" sampledSeconds="0.00" departed="0" arrived="0" entered="0" left="0" laneChangedFrom="0" laneChangedTo="0"/>
        <edge id="-227132713#2" sampledSeconds="0.00" departed="0" arrived="0" entered="0" left="0" laneChangedFrom="0" laneChangedTo="0"/>
        <edge id="-227132713#3" sampledSeconds="0.00" departed="0" arrived="0" entered="0" left="0" laneChangedFrom="0" laneChangedTo="0"/>
        <edge id="-253447401#0" sampledSeconds="0.00" departed="0" arrived="0" entered="0" left="0" laneChangedFrom="0" laneChangedTo="0"/>
        <edge id="-253447401#1" sampledSeconds="0.00" departed="0" arrived="0" entered="0" left="0" laneChangedFrom="0" laneChangedTo="0"/>
        <edge id="-253653636" sampledSeconds="9830.68" traveltime="143.77" overlapTraveltime="143.83" density="66.70" laneDensity="66.70" occupancy="22.67" waitingTime="8984.00" timeLoss="9498.69" speed="0.42" speedRelative="0.03" departed="11" arrived="1" entered="62" left="62" laneChangedFrom="0" laneChangedTo="0"/>
        <edge id="-258325430" sampledSeconds="0.00" departed="0" arrived="0" entered="0" left="0" laneChangedFrom="0" laneChangedTo="0"/>
        <edge id="-311587824" sampledSeconds="0.00" departed="0" arrived="0" entered="0" left="0" laneChangedFrom="0" laneChangedTo="0"/>