<?xml version="1.0" encoding="UTF-8"?>

<!-- generated on 2025-11-04 18:58:50 by Eclipse SUMO GUI Version 1.24.0
<sumoConfiguration xmlns:xsi="http://www.w3.org/2001/XMLSchema-instance" xsi:noNamespaceSchemaLocation="http://sumo.dlr.de/xsd/sumoConfiguration.xsd">

    <input>
        <net-file value="./custom_net.net.xml"/>
        <route-files value="./custom_settings.add.xml,./custom_car_flow.xml,./custom_motorcycle_flow.xml,./custom_truck_flow.xml"/>
        <additional-files value="./osm.poly.xml.gz,./output.add.xml"/>
    </input>

    <output>
        <tripinfo-output value="./tripinfos.xml"/>
        <statistic-output value="./stats.xml"/>
    </output>

    <processing>
        <lateral-resolution value="0.05"/>
        <ignore-route-errors value="true"/>
        <time-to-teleport value="300"/>
        <tls.actuated.jam-threshold value="30"/>
    </processing>

    <routing>
        <device.rerouting.adaptation-steps value="18"/>
        <device.rerouting.adaptation-interval value="10"/>
    </routing>

    <report>
        <verbose value="true"/>
        <duration-log.statistics value="true"/>
        <no-step-log value="true"/>
    </report>

    <random_number>
        <seed value="78"/>
    </random_number>

    <gui_only>
        <gui-settings-file value="./osm.view.xml"/>
    </gui_only>

</sumoConfiguration>
-->

<meandata xmlns:xsi="http://www.w3.org/2001/XMLSchema-instance" xsi:noNamespaceSchemaLocation="http://sumo.dlr.de/xsd/meandata_file.xsd">
    <interval begin="0.00" end="521.00" id="wizard_example">
        <edge id="-109505204#0" sampledSeconds="490.91" traveltime="9.68" overlapTraveltime="40.84" density="4711.25" laneDensity="4711.25" occupancy="81.68" waitingTime="471.00" timeLoss="489.04" speed="0.10" speedRelative="0.00" departed="1" arrived="1" entered="14" left="14" laneChangedFrom="0" laneChangedTo="0"/>
        <edge id="-109505204#2" sampledSeconds="184.79" traveltime="0.38" overlapTraveltime="13.41" density="1773.42" laneDensity="1773.42" occupancy="32.56" waitingTime="155.00" timeLoss="180.11" speed="0.27" speedRelative="0.01" departed="10" arrived="0" entered="8" left="18" laneChangedFrom="0" laneChangedTo="0"/>
        <edge id="-109505207#2" sampledSeconds="18861.52" traveltime="346.19" overlapTraveltime="350.07" density="194.11" laneDensity="97.05" occupancy="26.35" waitingTime="17678.00" timeLoss="18320.18" speed="0.54" speedRelative="0.04" departed="9" arrived="13" entered="58" left="3" laneChangedFrom="19" laneChangedTo="19" teleported="2"/>
        <edge id="-109505207#4" sampledSeconds="2287.87" traveltime="39.29" overlapTraveltime="40.41" density="27.47" laneDensity="13.73" occupancy="4.36" waitingTime="1003.00" timeLoss="1790.10" speed="4.04" speedRelative="0.29" departed="17" arrived="11" entered="40" left="46" laneChangedFrom="21" laneChangedTo="21"/>
        <edge id="-109505208#1" sampledSeconds="878.56" traveltime="15.39" overlapTraveltime="15.83" density="7.94" laneDensity="3.97" occupancy="0.99" waitingTime="47.00" timeLoss="254.95" speed="13.58" speedRelative="0.98" departed="19" arrived="9" entered="37" left="46" laneChangedFrom="60" laneChangedTo="60"/>
        <edge id="-109505208#4" sampledSeconds="7463.58" traveltime="89.41" overlapTraveltime="91.88" density="123.15" laneDensity="61.57" occupancy="15.62" waitingTime="5953.00" timeLoss="6951.42" speed="1.29" speedRelative="0.09" departed="32" arrived="10" entered="53" left="59" laneChangedFrom="90" laneChangedTo="91" teleported="3"/>
        <edge id="-1117713207#1" sampledSeconds="116.72" traveltime="0.17" overlapTraveltime="12.48" density="1600.18" laneDensity="1600.18" occupancy="22.31" waitingTime="93.00" timeLoss="109.18" speed="0.41" speedRelative="0.02" departed="3" arrived="1" entered="13" left="15" laneChangedFrom="0" laneChangedTo="0" teleported="1"/>
        <edge id="-258656153#0" sampledSeconds="2276.34" traveltime="38.97" overlapTraveltime="39.57" density="20.73" laneDensity="20.73" occupancy="5.19" waitingTime="1170.00" timeLoss="1628.86" speed="5.39" speedRelative="0.39" departed="24" arrived="9" entered="34" left="49" laneChangedFrom="0" laneChangedTo="0" teleported="2"/>
        <edge id="-258656153#2" sampledSeconds="16674.04" traveltime="242.39" overlapTraveltime="245.25" density="168.81" laneDensity="168.81" occupancy="52.99" waitingTime="13929.00" timeLoss="15975.29" speed="0.79" speedRelative="0.06" departed="30" arrived="10" entered="41" left="50" laneChangedFrom="0" laneChangedTo="0" teleported="2"/>
        <edge id="-258656153#3" sampledSeconds="1432.00" traveltime="24.88" overlapTraveltime="25.43" density="46.02" laneDensity="46.02" occupancy="13.27" waitingTime="849.00" timeLoss="1236.17" speed="2.46" speedRelative="0.18" departed="18" arrived="8" entered="40" left="47" laneChangedFrom="0" laneChangedTo="0"/>
        <edge id="-323987231#0" sampledSeconds="69.66" traveltime="8.63" overlapTraveltime="8.77" density="0.87" laneDensity="0.87" occupancy="0.21" waitingTime="0.00" timeLoss="8.72" speed="17.85" speedRelative="1.29" departed="0" arrived="8" entered="8" left="0" laneChangedFrom="0" laneChangedTo="0"/>
        <edge id="-341096510#1" sampledSeconds="2613.34" traveltime="30.41" overlapTraveltime="31.18" density="58.67" laneDensity="58.67" occupancy="16.54" waitingTime="1639.00" timeLoss="2212.57" speed="2.83" speedRelative="0.20" departed="18" arrived="12" entered="69" left="68" laneChangedFrom="0" laneChangedTo="0" teleported="3"/>
        <edge id="-350146685#1" sampledSeconds="1825.97" traveltime="26.76" overlapTraveltime="28.16" density="19.84" laneDensity="19.84" occupancy="5.33" waitingTime="611.00" timeLoss="1199.80" speed="6.37" speedRelative="0.46" departed="20" arrived="6" entered="46" left="58" laneChangedFrom="0" laneChangedTo="0" teleported="2"/>
        <edge id="-350146688#1" sampledSeconds="36.80" traveltime="3.96" overlapTraveltime="4.10" density="1.13" laneDensity="1.13" occupancy="0.26" waitingTime="0.00" timeLoss="7.64" speed="15.80" speedRelative="1.14" departed="0" arrived="9" entered="9" left="0" laneChangedFrom="0" laneChangedTo="0"/>
        <edge id="-350146688#3" sampledSeconds="1878.78" traveltime="42.79" overlapTraveltime="44.24" density="27.19" laneDensity="27.19" occupancy="14.16" waitingTime="1168.00" timeLoss="1554.11" speed="3.12" speedRelative="0.22" departed="18" arrived="5" entered="33" left="31" laneChangedFrom="0" laneChangedTo="0"/>
        <edge id="-350146688#5" sampledSeconds="22056.29" traveltime="331.49" overlapTraveltime="336.44" density="508.03" laneDensity="508.03" occupancy="118.97" waitingTime="17696.00" timeLoss="21767.10" speed="0.25" speedRelative="0.02" departed="11" arrived="0" entered="74" left="38" laneChangedFrom="0" laneChangedTo="0" teleported="6"/>
        <edge id="-350146688#6" sampledSeconds="7796.94" traveltime="116.09" overlapTraveltime="119.70" density="234.79" laneDensity="234.79" occupancy="85.62" waitingTime="6300.00" timeLoss="7563.66" speed="0.56" speedRelative="0.04" departed="19" arrived="15" entered="53" left="47" laneChangedFrom="0" laneChangedTo="0"/>
        <edge id="-350146691#0" sampledSeconds="9212.42" traveltime="102.25" overlapTraveltime="107.63" density="214.75" laneDensity="214.75" occupancy="64.99" waitingTime="6517.00" timeLoss="8825.53" speed="0.79" speedRelative="0.06" departed="19" arrived="9" entered="77" left="63" laneChangedFrom="0" laneChangedTo="0" teleported="2"/>
        <edge id="-350146691#1" sampledSeconds="1672.49" traveltime="19.34" overlapTraveltime="20.42" density="44.28" laneDensity="44.28" occupancy="16.08" waitingTime="773.00" timeLoss="1328.59" speed="3.73" speedRelative="0.27" departed="29" arrived="8" entered="60" left="71" laneChangedFrom="0" laneChangedTo="0" teleported="1"/>
        <edge id="-367762382#1" sampledSeconds="0.00" departed="0" arrived="0" entered="0" left="0" laneChangedFrom="0" laneChangedTo="0"/>
        <edge id="-555600348" sampledSeconds="4079.74" traveltime="383.80" overlapTraveltime="416.69" density="189.24" laneDensity="189.24" occupancy="78.37" waitingTime="3957.00" timeLoss="4055.56" speed="0.11" speedRelative="0.01" departed="14" arrived="0" entered="0" left="6" laneChangedFrom="0" laneChangedTo="0" teleported="2"/>
        <edge id="-555600352" sampledSeconds="4069.22" traveltime="451.72" overlapTraveltime="486.95" density="219.76" laneDensity="219.76" occupancy="81.41" waitingTime="3977.00" timeLoss="4050.79" speed="0.08" speedRelative="0.01" departed="12" arrived="0" entered="0" left="4" laneChangedFrom="0" laneChangedTo="0" teleported="1"/>
        <edge id="-586664246#1" sampledSeconds="5565.42" traveltime="253.81" overlapTraveltime="255.63" density="75.05" laneDensity="75.05" occupancy="13.95" waitingTime="5189.00" timeLoss="5451.39" speed="0.56" speedRelative="0.03" departed="18" arrived="1" entered="5" left="8" laneChangedFrom="0" laneChangedTo="0" teleported="3"/>
        <edge id="-586664246#2" sampledSeconds="5294.56" traveltime="226.00" overlapTraveltime="246.88" density="696.05" laneDensity="696.05" occupancy="144.95" waitingTime="5111.00" timeLoss="5276.90" speed="0.07" speedRelative="0.00" departed="7" arrived="0" entered="20" left="18" laneChangedFrom="0" laneChangedTo="0"/>
        <edge id="-586664246#4" sampledSeconds="9532.67" traveltime="204.58" overlapTraveltime="209.14" density="260.56" laneDensity="260.56" occupancy="65.88" waitingTime="8791.00" timeLoss="9411.32" speed="0.35" speedRelative="0.02" departed="13" arrived="1" entered="55" left="22" laneChangedFrom="0" laneChangedTo="0" teleported="1"/>
        <edge id="-739723515#1" sampledSeconds="0.00" departed="0" arrived="0" entered="0" left="0" laneChangedFrom="0" laneChangedTo="0"/>
        <edge id="-888879165#3" sampledSeconds="3344.27" traveltime="65.98" overlapTraveltime="68.15" density="46.62" laneDensity="46.62" occupancy="21.42" waitingTime="2680.00" timeLoss="2977.18" speed="2.09" speedRelative="0.15" departed="15" arrived="0" entered="35" left="49" laneChangedFrom="0" laneChangedTo="0"/>
        <edge id="-888879166" sampledSeconds="2206.51" traveltime="32.44" overlapTraveltime="35.22" density="181.38" laneDensity="181.38" occupancy="79.17" waitingTime="1916.00" timeLoss="2128.96" speed="0.79" speedRelative="0.04" departed="23" arrived="14" entered="49" left="51" laneChangedFrom="0" laneChangedTo="0" teleported="1"/>
        <edge id="-898487483#0" sampledSeconds="20690.89" traveltime="293.49" overlapTraveltime="296.68" density="403.60" laneDensity="403.60" occupancy="100.87" waitingTime="17727.00" timeLoss="20429.96" speed="0.34" speedRelative="0.02" departed="14" arrived="4" entered="66" left="54" laneChangedFrom="0" laneChangedTo="0" teleported="4"/>
        <edge id="-977815031" sampledSeconds="2571.00" traveltime="556.92" overlapTraveltime="645.24" density="181.76" laneDensity="181.76" occupancy="78.26" waitingTime="2521.00" timeLoss="2563.88" speed="0.05" speedRelative="0.00" departed="7" arrived="0" entered="0" left="2" laneChangedFrom="0" laneChangedTo="0" teleported="2"/>
        <edge id="109505204#0" sampledSeconds="113.45" traveltime="0.04" overlapTraveltime="3.77" density="1088.78" laneDensity="1088.78" occupancy="19.07" waitingTime="85.00" timeLoss="111.06" speed="0.52" speedRelative="0.02" departed="14" arrived="2" entered="15" left="27" laneChangedFrom="0" laneChangedTo="0"/>
        <edge id="109505204#1" sampledSeconds="1095.87" traveltime="1.82" overlapTraveltime="27.93" density="10517.02" laneDensity="10517.02" occupancy="209.74" waitingTime="1055.00" timeLoss="1089.75" speed="0.08" speedRelative="0.00" departed="10" arrived="1" entered="32" left="41" laneChangedFrom="0" laneChangedTo="0"/>
        <edge id="109505207#0" sampledSeconds="3046.74" traveltime="64.51" overlapTraveltime="67.04" density="31.40" laneDensity="15.70" occupancy="4.62" waitingTime="1917.00" timeLoss="2588.49" speed="2.82" speedRelative="0.20" departed="29" arrived="1" entered="17" left="44" laneChangedFrom="37" laneChangedTo="37"/>
        <edge id="109505207#3" sampledSeconds="1131.41" traveltime="18.31" overlapTraveltime="19.86" density="13.60" laneDensity="6.80" occupancy="2.53" waitingTime="299.00" timeLoss="606.62" speed="8.24" speedRelative="0.59" departed="11" arrived="9" entered="47" left="43" laneChangedFrom="12" laneChangedTo="12"/>
        <edge id="109505208#2" sampledSeconds="13190.77" traveltime="131.78" overlapTraveltime="133.19" density="217.16" laneDensity="108.58" occupancy="28.70" waitingTime="11178.00" timeLoss="12565.35" speed="0.90" speedRelative="0.06" departed="33" arrived="5" entered="70" left="83" laneChangedFrom="57" laneChangedTo="57" teleported="2"/>
        <edge id="1117713206" sampledSeconds="0.00" departed="0" arrived="0" entered="0" left="0" laneChangedFrom="0" laneChangedTo="0"/>
        <edge id="1117713207#0" sampledSeconds="345.59" traveltime="0.06" overlapTraveltime="45.70" density="4738.03" laneDensity="4738.03" occupancy="66.24" waitingTime="328.00" timeLoss="344.12" speed="0.11" speedRelative="0.01" departed="0" arrived="0" entered="13" left="13" laneChangedFrom="0" laneChangedTo="0"/>
        <edge id="1305093055#0" sampledSeconds="6675.90" traveltime="519.15" overlapTraveltime="546.68" density="244.86" laneDensity="122.43" occupancy="42.86" waitingTime="6499.00" timeLoss="6645.32" speed="0.10" speedRelative="0.01" departed="17" arrived="0" entered="0" left="3" laneChangedFrom="4" laneChangedTo="4" teleported="1"/>
        <edge id="1305093055#1" sampledSeconds="0.00" departed="0" arrived="0" entered="0" left="0" laneChangedFrom="0" laneChangedTo="0"/>
        <edge id="1307885878" sampledSeconds="11802.63" traveltime="381.59" overlapTraveltime="396.84" density="61.27" laneDensity="30.63" occupancy="8.04" waitingTime="10620.00" timeLoss="11187.93" speed="0.94" speedRelative="0.07" departed="31" arrived="0" entered="0" left="7" laneChangedFrom="23" laneChangedTo="23" teleported="2"/>
        <edge id="253653636" sampledSeconds="2145.79" traveltime="27.54" overlapTraveltime="28.71" density="19.94" laneDensity="9.97" occupancy="2.51" waitingTime="824.00" timeLoss="1319.27" speed="7.29" speedRelative="0.52" departed="24" arrived="4" entered="52" left="69" laneChangedFrom="33" laneChangedTo="34"/>
        <edge id="258656153#0" sampledSeconds="14496.66" traveltime="167.12" overlapTraveltime="168.77" density="131.86" laneDensity="131.86" occupancy="36.46" waitingTime="12446.00" timeLoss="13505.91" speed="1.27" speedRelative="0.09" departed="26" arrived="9" entered="64" left="65" laneChangedFrom="0" laneChangedTo="0" teleported="2"/>
        <edge id="258656153#1" sampledSeconds="4225.93" traveltime="59.75" overlapTraveltime="61.89" density="42.58" laneDensity="42.58" occupancy="16.11" waitingTime="2791.00" timeLoss="3522.41" speed="3.14" speedRelative="0.23" departed="18" arrived="6" entered="53" left="54" laneChangedFrom="0" laneChangedTo="0"/>
        <edge id="258656153#3" sampledSeconds="12427.62" traveltime="374.57" overlapTraveltime="386.93" density="399.35" laneDensity="399.35" occupancy="104.99" waitingTime="11665.00" timeLoss="12323.22" speed="0.16" speedRelative="0.01" departed="15" arrived="1" entered="32" left="11" laneChangedFrom="0" laneChangedTo="0" teleported="2"/>
        <edge id="323987231#0" sampledSeconds="262.91" traveltime="14.49" overlapTraveltime="14.93" density="3.28" laneDensity="3.28" occupancy="1.07" waitingTime="4.00" timeLoss="112.89" speed="10.54" speedRelative="0.76" departed="18" arrived="0" entered="0" left="18" laneChangedFrom="0" laneChangedTo="0"/>
        <edge id="341096510#1" sampledSeconds="1119.49" traveltime="16.89" overlapTraveltime="17.65" density="24.97" laneDensity="24.97" occupancy="10.93" waitingTime="592.00" timeLoss="810.56" speed="5.13" speedRelative="0.37" departed="19" arrived="8" entered="52" left="51" laneChangedFrom="0" laneChangedTo="0"/>
        <edge id="350146685#0" sampledSeconds="2362.06" traveltime="30.68" overlapTraveltime="31.54" density="25.68" laneDensity="25.68" occupancy="9.16" waitingTime="761.00" timeLoss="1644.66" speed="5.71" speedRelative="0.41" departed="32" arrived="18" entered="45" left="52" laneChangedFrom="0" laneChangedTo="0"/>
        <edge id="350146688#0" sampledSeconds="590.51" traveltime="16.44" overlapTraveltime="18.47" density="18.16" laneDensity="18.16" occupancy="6.44" waitingTime="233.00" timeLoss="473.64" speed="3.59" speedRelative="0.26" departed="34" arrived="0" entered="0" left="34" laneChangedFrom="0" laneChangedTo="0"/>
        <edge id="350146688#2" sampledSeconds="13679.51" traveltime="197.44" overlapTraveltime="199.50" density="198.27" laneDensity="198.27" occupancy="52.64" waitingTime="10384.00" timeLoss="13181.92" speed="0.68" speedRelative="0.05" departed="20" arrived="7" entered="60" left="51" laneChangedFrom="0" laneChangedTo="0" teleported="3"/>
        <edge id="350146688#5" sampledSeconds="6614.44" traveltime="76.07" overlapTraveltime="77.37" density="152.35" laneDensity="152.35" occupancy="43.51" waitingTime="4651.00" timeLoss="6225.10" speed="1.11" speedRelative="0.08" departed="12" arrived="12" entered="78" left="67" laneChangedFrom="0" laneChangedTo="0"/>
        <edge id="350146688#6" sampledSeconds="11332.66" traveltime="238.19" overlapTraveltime="242.19" density="341.26" laneDensity="341.26" occupancy="90.00" waitingTime="10069.00" timeLoss="11166.50" speed="0.27" speedRelative="0.02" departed="17" arrived="16" entered="36" left="27" laneChangedFrom="0" laneChangedTo="0" teleported="3"/>
        <edge id="350146691#0" sampledSeconds="10367.51" traveltime="203.63" overlapTraveltime="206.45" density="241.88" laneDensity="241.88" occupancy="60.86" waitingTime="9200.00" timeLoss="10142.03" speed="0.41" speedRelative="0.03" departed="19" arrived="4" entered="34" left="43" laneChangedFrom="0" laneChangedTo="0" teleported="4"/>
        <edge id="350146691#1" sampledSeconds="2591.09" traveltime="48.86" overlapTraveltime="50.24" density="68.61" laneDensity="68.61" occupancy="23.05" waitingTime="1833.00" timeLoss="2379.72" speed="1.51" speedRelative="0.11" departed="19" arrived="11" entered="39" left="36" laneChangedFrom="0" laneChangedTo="0"/>
        <edge id="362714491" sampledSeconds="11.30" traveltime="5.60" overlapTraveltime="5.82" density="0.28" laneDensity="0.14" occupancy="0.05" waitingTime="0.00" timeLoss="6.17" speed="13.75" speedRelative="0.49" departed="0" arrived="2" entered="2" left="0" laneChangedFrom="1" laneChangedTo="1"/>
        <edge id="362871972#0" sampledSeconds="1777.33" traveltime="46.03" overlapTraveltime="46.18" density="23.59" laneDensity="11.79" occupancy="2.72" waitingTime="1381.00" timeLoss="1574.85" speed="3.18" speedRelative="0.11" departed="13" arrived="5" entered="26" left="34" laneChangedFrom="16" laneChangedTo="16" teleported="4"/>
        <edge id="362871972#1" sampledSeconds="22494.96" traveltime="450.38" overlapTraveltime="456.58" density="121.50" laneDensity="60.75" occupancy="34.21" waitingTime="21116.00" timeLoss="21822.58" speed="0.79" speedRelative="0.03" departed="46" arrived="16" entered="24" left="1" laneChangedFrom="8" laneChangedTo="8" teleported="1"/>
        <edge id="364177895#0" sampledSeconds="23397.17" traveltime="361.46" overlapTraveltime="364.31" density="156.06" laneDensity="78.03" occupancy="21.48" waitingTime="21475.00" timeLoss="22760.20" speed="0.80" speedRelative="0.03" departed="39" arrived="12" entered="38" left="1" laneChangedFrom="39" laneChangedTo="42" teleported="1"/>
        <edge id="367762382#0" sampledSeconds="4020.06" traveltime="147.44" overlapTraveltime="146.41" density="172.31" laneDensity="172.31" occupancy="33.92" waitingTime="3688.00" timeLoss="3945.99" speed="0.32" speedRelative="0.02" departed="29" arrived="0" entered="0" left="28" laneChangedFrom="0" laneChangedTo="0" teleported="2"/>
        <edge id="515970250" sampledSeconds="399.87" traveltime="16.98" overlapTraveltime="18.45" density="16.43" laneDensity="16.43" occupancy="6.52" waitingTime="203.00" timeLoss="360.35" speed="2.75" speedRelative="0.12" departed="24" arrived="0" entered="0" left="22" laneChangedFrom="0" laneChangedTo="0"/>
        <edge id="555600348" sampledSeconds="5.66" traveltime="2.79" overlapTraveltime="2.99" density="0.26" laneDensity="0.26" occupancy="0.08" waitingTime="0.00" timeLoss="1.05" speed="14.99" speedRelative="1.08" departed="0" arrived="2" entered="2" left="0" laneChangedFrom="0" laneChangedTo="0"/>
        <edge id="555600352" sampledSeconds="0.00" departed="0" arrived="0" entered="0" left="0" laneChangedFrom="0" laneChangedTo="0"/>
        <edge id="586657042#0" sampledSeconds="7275.59" traveltime="133.82" overlapTraveltime="135.87" density="70.39" laneDensity="35.19" occupancy="9.32" waitingTime="6141.00" timeLoss="6699.90" speed="1.48" speedRelative="0.11" departed="23" arrived="5" entered="32" left="35" laneChangedFrom="55" laneChangedTo="56" teleported="1"/>
        <edge id="586657042#1" sampledSeconds="5718.93" traveltime="44.03" overlapTraveltime="49.60" density="65.85" laneDensity="32.92" occupancy="9.13" waitingTime="3421.00" timeLoss="4649.86" speed="3.42" speedRelative="0.25" departed="28" arrived="20" entered="91" left="90" laneChangedFrom="82" laneChangedTo="82"/>
        <edge id="586657042#3" sampledSeconds="1920.60" traveltime="30.99" overlapTraveltime="31.77" density="27.80" laneDensity="13.90" occupancy="4.15" waitingTime="1103.00" timeLoss="1482.25" speed="4.27" speedRelative="0.31" departed="22" arrived="5" entered="40" left="56" laneChangedFrom="19" laneChangedTo="19"/>
        <edge id="586657908#0" sampledSeconds="23705.27" traveltime="128.08" overlapTraveltime="129.11" density="343.08" laneDensity="171.54" occupancy="56.55" waitingTime="14554.00" timeLoss="22726.35" speed="1.05" speedRelative="0.05" departed="36" arrived="10" entered="156" left="163" laneChangedFrom="162" laneChangedTo="162" teleported="5"/>
        <edge id="586657908#2" sampledSeconds="25645.81" traveltime="129.53" overlapTraveltime="131.64" density="295.30" laneDensity="147.65" occupancy="47.36" waitingTime="16103.00" timeLoss="24386.90" speed="1.29" speedRelative="0.06" departed="28" arrived="8" entered="185" left="144" laneChangedFrom="113" laneChangedTo="114"/>
        <edge id="586657908#3" sampledSeconds="21304.33" traveltime="162.19" overlapTraveltime="163.48" density="206.14" laneDensity="103.07" occupancy="27.64" waitingTime="17893.00" timeLoss="20321.77" speed="1.23" speedRelative="0.06" departed="26" arrived="7" entered="140" left="74" laneChangedFrom="44" laneChangedTo="44" teleported="5"/>
        <edge id="586664246#0" sampledSeconds="16871.53" traveltime="353.73" overlapTraveltime="358.75" density="227.22" laneDensity="227.22" occupancy="57.09" waitingTime="15534.00" timeLoss="16619.52" speed="0.40" speedRelative="0.02" departed="17" arrived="0" entered="43" left="13" laneChangedFrom="0" laneChangedTo="0" teleported="4"/>
        <edge id="586664246#2" sampledSeconds="1525.87" traveltime="133.43" overlapTraveltime="146.53" density="200.60" laneDensity="200.60" occupancy="80.94" waitingTime="1472.00" timeLoss="1518.24" speed="0.13" speedRelative="0.01" departed="4" arrived="0" entered="17" left="18" laneChangedFrom="0" laneChangedTo="0" teleported="1"/>
        <edge id="586664246#3" sampledSeconds="8423.92" traveltime="388.10" overlapTraveltime="406.96" density="229.67" laneDensity="229.67" occupancy="87.54" waitingTime="8100.00" timeLoss="8365.08" speed="0.18" speedRelative="0.01" departed="8" arrived="0" entered="23" left="10" laneChangedFrom="0" laneChangedTo="0" teleported="1"/>
        <edge id="587800915#0" sampledSeconds="928.39" traveltime="28.93" overlapTraveltime="29.30" density="5.06" laneDensity="5.06" occupancy="1.68" waitingTime="55.00" timeLoss="325.62" speed="12.13" speedRelative="0.87" departed="32" arrived="0" entered="0" left="32" laneChangedFrom="0" laneChangedTo="0"/>
        <edge id="587800915#3" sampledSeconds="3534.34" traveltime="43.11" overlapTraveltime="43.93" density="39.38" laneDensity="39.38" occupancy="11.38" waitingTime="780.74" timeLoss="2770.80" speed="3.99" speedRelative="0.29" departed="21" arrived="1" entered="60" left="80" laneChangedFrom="0" laneChangedTo="0" teleported="1"/>
        <edge id="587800918#1" sampledSeconds="16321.73" traveltime="360.25" overlapTraveltime="363.54" density="112.83" laneDensity="112.83" occupancy="28.68" waitingTime="15264.00" timeLoss="15863.11" speed="0.77" speedRelative="0.03" departed="31" arrived="0" entered="21" left="3" laneChangedFrom="0" laneChangedTo="0" teleported="3"/>
        <edge id="587800918#5" sampledSeconds="2.46" traveltime="2.46" overlapTraveltime="2.52" density="0.07" laneDensity="0.07" occupancy="0.01" waitingTime="0.00" timeLoss="0.17" speed="25.86" speedRelative="1.16" departed="0" arrived="1" entered="1" left="0" laneChangedFrom="0" laneChangedTo="0"/>
        <edge id="615037319" sampledSeconds="4837.91" traveltime="151.49" overlapTraveltime="154.18" density="185.98" laneDensity="92.99" occupancy="29.72" waitingTime="4328.00" timeLoss="4772.19" speed="0.34" speedRelative="0.01" departed="35" arrived="0" entered="0" left="30" laneChangedFrom="10" laneChangedTo="10" teleported="4"/>
        <edge id="739723515#0" sampledSeconds="0.00" departed="0" arrived="0" entered="0" left="0" laneChangedFrom="0" laneChangedTo="0"/>
        <edge id="888879165#0" sampledSeconds="438.58" traveltime="9.29" overlapTraveltime="9.99" density="6.11" laneDensity="6.11" occupancy="1.87" waitingTime="0.00" timeLoss="87.68" speed="14.12" speedRelative="1.02" departed="0" arrived="9" entered="44" left="35" laneChangedFrom="0" laneChangedTo="0"/>
        <edge id="890146629" sampledSeconds="2.26" traveltime="2.26" overlapTraveltime="2.34" density="0.11" laneDensity="0.11" occupancy="0.02" waitingTime="0.00" timeLoss="0.24" speed="17.53" speedRelative="1.26" departed="0" arrived="1" entered="2" left="1" laneChangedFrom="0" laneChangedTo="0" teleported="1"/>
        <edge id="890146630" sampledSeconds="305.00" traveltime="474.31" overlapTraveltime="640.27" density="40.97" laneDensity="40.97" occupancy="20.48" waitingTime="301.00" timeLoss="304.64" speed="0.03" speedRelative="0.00" departed="1" arrived="0" entered="2" left="3" laneChangedFrom="0" laneChangedTo="0" teleported="1"/>
        <edge id="890146631#0" sampledSeconds="480.43" traveltime="12.66" overlapTraveltime="6.83" density="1707.64" laneDensity="1707.64" occupancy="90.43" waitingTime="427.00" timeLoss="473.04" speed="0.33" speedRelative="0.01" departed="29" arrived="4" entered="50" left="74" laneChangedFrom="0" laneChangedTo="0" teleported="16"/>
        <edge id="890146631#1" sampledSeconds="2125.82" traveltime="23.39" overlapTraveltime="25.50" density="104.17" laneDensity="104.17" occupancy="64.02" waitingTime="1142.00" timeLoss="1966.26" speed="1.78" speedRelative="0.08" departed="40" arrived="5" entered="57" left="88" laneChangedFrom="0" laneChangedTo="0"/>
        <edge id="890146631#2" sampledSeconds="8815.53" traveltime="83.18" overlapTraveltime="85.23" density="174.28" laneDensity="174.28" occupancy="73.96" waitingTime="5304.00" timeLoss="8386.59" speed="1.19" speedRelative="0.05" departed="21" arrived="1" entered="93" left="93" laneChangedFrom="0" laneChangedTo="0" teleported="4"/>
        <edge id="890146632" sampledSeconds="388.69" traveltime="8.84" overlapTraveltime="10.49" density="65.27" laneDensity="65.27" occupancy="25.36" waitingTime="228.00" timeLoss="367.32" speed="1.48" speedRelative="0.07" departed="15" arrived="11" entered="33" left="35" laneChangedFrom="0" laneChangedTo="0" teleported="1"/>
        <edge id="898487482" sampledSeconds="1118.57" traveltime="25.52" overlapTraveltime="26.12" density="12.48" laneDensity="12.48" occupancy="2.37" waitingTime="594.00" timeLoss="843.66" speed="6.66" speedRelative="0.30" departed="11" arrived="3" entered="32" left="40" laneChangedFrom="0" laneChangedTo="0" teleported="2"/>
        <edge id="898487483#0" sampledSeconds="1457.50" traveltime="19.30" overlapTraveltime="21.06" density="28.43" laneDensity="28.43" occupancy="6.93" waitingTime="643.00" timeLoss="1192.10" speed="4.80" speedRelative="0.22" departed="25" arrived="4" entered="45" left="66" laneChangedFrom="0" laneChangedTo="0"/>
        <edge id="898487483#1" sampledSeconds="448.28" traveltime="8.53" overlapTraveltime="8.49" density="36.85" laneDensity="36.85" occupancy="7.08" waitingTime="304.00" timeLoss="392.56" speed="2.99" speedRelative="0.13" departed="20" arrived="9" entered="34" left="45" laneChangedFrom="0" laneChangedTo="0" teleported="1"/>
        <edge id="898487493#0" sampledSeconds="19333.05" traveltime="320.47" overlapTraveltime="323.77" density="382.36" laneDensity="382.36" occupancy="104.27" waitingTime="16982.00" timeLoss="19019.27" speed="0.31" speedRelative="0.02" departed="26" arrived="9" entered="38" left="45" laneChangedFrom="0" laneChangedTo="0" teleported="3"/>
        <edge id="898487493#1" sampledSeconds="5412.70" traveltime="90.91" overlapTraveltime="91.20" density="264.08" laneDensity="264.08" occupancy="46.97" waitingTime="4908.00" timeLoss="5281.90" speed="0.45" speedRelative="0.03" departed="20" arrived="9" entered="52" left="33" laneChangedFrom="0" laneChangedTo="0" teleported="1"/>
        <edge id="898487493#2" sampledSeconds="520.00" overlapTraveltime="100000.00" density="224.29" laneDensity="224.29" occupancy="99.81" waitingTime="520.00" timeLoss="520.00" speed="0.00" speedRelative="0.00" departed="2" arrived="0" entered="3" left="4" laneChangedFrom="0" laneChangedTo="0" teleported="2"/>
        <edge id="977815031" sampledSeconds="0.00" departed="0" arrived="0" entered="0" left="0" laneChangedFrom="0" laneChangedTo="0"/>
    </interval>
</meandata>
