<?xml version="1.0" encoding="UTF-8"?>

<!-- generated on 2025-11-04 18:58:50 by Eclipse SUMO GUI Version 1.24.0
<sumoConfiguration xmlns:xsi="http://www.w3.org/2001/XMLSchema-instance" xsi:noNamespaceSchemaLocation="http://sumo.dlr.de/xsd/sumoConfiguration.xsd">

    <input>
        <net-file value="./custom_net.net.xml"/>
        <route-files value="./custom_settings.add.xml,./custom_car_flow.xml,./custom_motorcycle_flow.xml,./custom_truck_flow.xml"/>
        <additional-files value="./osm.poly.xml.gz,./output.add.xml"/>
    </input>

    <output>
        <tripinfo-output value="./tripinfos.xml"/>
        <statistic-output value="./stats.xml"/>
    </output>

    <processing>
        <lateral-resolution value="0.05"/>
        <ignore-route-errors value="true"/>
        <time-to-teleport value="300"/>
        <tls.actuated.jam-threshold value="30"/>
    </processing>

    <routing>
        <device.rerouting.adaptation-steps value="18"/>
        <device.rerouting.adaptation-interval value="10"/>
    </routing>

    <report>
        <verbose value="true"/>
        <duration-log.statistics value="true"/>
        <no-step-log value="true"/>
    </report>

    <random_number>
        <seed value="78"/>
    </random_number>

    <gui_only>
        <gui-settings-file value="./osm.view.xml"/>
    </gui_only>

</sumoConfiguration>
-->

<tripinfos xmlns:xsi="http://www.w3.org/2001/XMLSchema-instance" xsi:noNamespaceSchemaLocation="http://sumo.dlr.de/xsd/tripinfo_file.xsd">
    <tripinfo id="motorcycle57.0" depart="4.00" departLane="890146632_0" departPos="1.60" departPosLat="0.00" departSpeed="0.00" departDelay="4.00" arrival="13.00" arrivalLane="890146631#1_0" arrivalPos="39.17" arrivalPosLat="-1.20" arrivalSpeed="16.23" duration="9.00" routeLength="65.04" waitingTime="0.00" waitingCount="0" stopTime="0.00" timeLoss="6.66" rerouteNo="1" devices="tripinfo_motorcycle57.0 routing_motorcycle57.0" vType="motorcycle" speedFactor="1.56" vaporized=""/>
    <tripinfo id="car13.0" depart="0.00" departLane="-258656153#0_0" departPos="5.10" departPosLat="0.00" departSpeed="0.00" departDelay="0.00" arrival="19.00" arrivalLane="-258656153#0_0" arrivalPos="210.80" arrivalPosLat="0.70" arrivalSpeed="13.02" duration="19.00" routeLength="205.70" waitingTime="0.00" waitingCount="0" stopTime="0.00" timeLoss="3.90" rerouteNo="1" devices="tripinfo_car13.0 routing_car13.0" vType="passenger" speedFactor="1.02" vaporized=""/>
    <tripinfo id="car98.0" depart="0.00" departLane="350146688#0_0" departPos="5.10" departPosLat="0.00" departSpeed="0.00" departDelay="0.00" arrival="19.00" arrivalLane="-109505207#4_0" arrivalPos="159.86" arrivalPosLat="0.30" arrivalSpeed="15.10" duration="19.00" routeLength="231.45" waitingTime="0.00" waitingCount="0" stopTime="0.00" timeLoss="4.43" rerouteNo="0" devices="tripinfo_car98.0 routing_car98.0" vType="passenger" speedFactor="1.16" vaporized=""/>
    <tripinfo id="car369.0" depart="20.00" departLane="109505204#0_0" departPos="0.20" departPosLat="0.00" departSpeed="0.00" departDelay="20.00" arrival="21.00" arrivalLane="109505204#0_0" arrivalPos="0.20" arrivalPosLat="0.00" arrivalSpeed="1.81" duration="1.00" routeLength="0.00" waitingTime="0.00" waitingCount="0" stopTime="0.00" timeLoss="0.93" rerouteNo="1" devices="tripinfo_car369.0 routing_car369.0" vType="passenger" speedFactor="1.23" vaporized=""/>
    <tripinfo id="motorcycle369.0" depart="22.00" departLane="109505204#0_0" departPos="0.20" departPosLat="0.00" departSpeed="0.00" departDelay="22.00" arrival="23.00" arrivalLane="109505204#0_0" arrivalPos="0.20" arrivalPosLat="0.00" arrivalSpeed="3.30" duration="1.00" routeLength="0.00" waitingTime="0.00" waitingCount="0" stopTime="0.00" timeLoss="0.88" rerouteNo="1" devices="tripinfo_motorcycle369.0 routing_motorcycle369.0" vType="motorcycle" speedFactor="1.53" vaporized=""/>
    <tripinfo id="motorcycle13.0" depart="13.00" departLane="-258656153#0_0" departPos="1.60" departPosLat="0.00" departSpeed="0.00" departDelay="13.00" arrival="28.00" arrivalLane="-258656153#0_0" arrivalPos="210.80" arrivalPosLat="-1.20" arrivalSpeed="18.84" duration="15.00" routeLength="209.20" waitingTime="0.00" waitingCount="0" stopTime="0.00" timeLoss="4.01" rerouteNo="1" devices="tripinfo_motorcycle13.0 routing_motorcycle13.0" vType="motorcycle" speedFactor="1.44" vaporized=""/>
    <tripinfo id="car337.0" depart="5.00" departLane="362871972#0_0" departPos="5.10" departPosLat="0.00" departSpeed="0.00" departDelay="5.00" arrival="29.00" arrivalLane="362871972#1_1" arrivalPos="355.36" arrivalPosLat="0.70" arrivalSpeed="32.07" duration="24.00" routeLength="514.48" waitingTime="0.00" waitingCount="0" stopTime="0.00" timeLoss="8.21" rerouteNo="0" devices="tripinfo_car337.0 routing_car337.0" vType="passenger" speedFactor="1.26" vaporized=""/>
    <tripinfo id="motorcycle440.0" depart="20.00" departLane="-586664246#1_0" departPos="1.60" departPosLat="0.00" departSpeed="0.00" departDelay="20.00" arrival="31.00" arrivalLane="-586664246#1_0" arrivalPos="142.34" arrivalPosLat="0.45" arrivalSpeed="26.87" duration="11.00" routeLength="140.74" waitingTime="0.00" waitingCount="0" stopTime="0.00" timeLoss="4.99" rerouteNo="1" devices="tripinfo_motorcycle440.0 routing_motorcycle440.0" vType="motorcycle" speedFactor="1.60" vaporized=""/>
    <tripinfo id="motorcycle449.0" depart="3.00" departLane="350146688#5_0" departPos="1.60" departPosLat="0.00" departSpeed="0.00" departDelay="3.00" arrival="31.00" arrivalLane="350146691#1_0" arrivalPos="72.49" arrivalPosLat="-1.20" arrivalSpeed="21.60" duration="28.00" routeLength="354.06" waitingTime="0.00" waitingCount="0" stopTime="0.00" timeLoss="10.79" rerouteNo="1" devices="tripinfo_motorcycle449.0 routing_motorcycle449.0" vType="motorcycle" speedFactor="1.57" vaporized=""/>
    <tripinfo id="motorcycle407.0" depart="0.00" departLane="350146688#5_0" departPos="1.60" departPosLat="0.00" departSpeed="0.00" departDelay="0.00" arrival="33.00" arrivalLane="-350146691#0_0" arrivalPos="82.34" arrivalPosLat="-0.65" arrivalSpeed="6.15" duration="33.00" routeLength="358.70" waitingTime="2.00" waitingCount="1" stopTime="0.00" timeLoss="14.23" rerouteNo="1" devices="tripinfo_motorcycle407.0 routing_motorcycle407.0" vType="motorcycle" speedFactor="1.46" vaporized=""/>
    <tripinfo id="motorcycle337.0" depart="9.00" departLane="362871972#0_0" departPos="1.60" departPosLat="0.00" departSpeed="0.00" departDelay="9.00" arrival="34.00" arrivalLane="362871972#1_1" arrivalPos="355.36" arrivalPosLat="-1.20" arrivalSpeed="26.36" duration="25.00" routeLength="517.98" waitingTime="0.00" waitingCount="0" stopTime="0.00" timeLoss="6.05" rerouteNo="0" devices="tripinfo_motorcycle337.0 routing_motorcycle337.0" vType="motorcycle" speedFactor="1.61" vaporized=""/>
    <tripinfo id="motorcycle137.0" depart="4.00" departLane="-341096510#1_0" departPos="1.60" departPosLat="0.00" departSpeed="0.00" departDelay="4.00" arrival="35.00" arrivalLane="-258656153#2_0" arrivalPos="189.59" arrivalPosLat="-1.20" arrivalSpeed="18.38" duration="31.00" routeLength="410.95" waitingTime="0.00" waitingCount="0" stopTime="0.00" timeLoss="9.58" rerouteNo="1" devices="tripinfo_motorcycle137.0 routing_motorcycle137.0" vType="motorcycle" speedFactor="1.44" vaporized=""/>
    <tripinfo id="motorcycle258.0" depart="9.00" departLane="-586664246#1_0" departPos="1.60" departPosLat="0.00" departSpeed="0.00" departDelay="9.00" arrival="34.00" arrivalLane="-1117713207#1_0" arrivalPos="0.14" arrivalPosLat="-1.60" arrivalSpeed="3.95" duration="25.00" routeLength="157.19" waitingTime="6.00" waitingCount="1" stopTime="0.00" timeLoss="16.44" rerouteNo="1" devices="tripinfo_motorcycle258.0 routing_motorcycle258.0" vType="motorcycle" speedFactor="1.41" vaporized="teleport"/>
    <tripinfo id="motorcycle98.0" depart="21.00" departLane="350146688#0_0" departPos="1.60" departPosLat="0.00" departSpeed="0.00" departDelay="21.00" arrival="37.00" arrivalLane="-109505207#4_0" arrivalPos="159.86" arrivalPosLat="0.05" arrivalSpeed="19.89" duration="16.00" routeLength="234.95" waitingTime="0.00" waitingCount="0" stopTime="0.00" timeLoss="4.12" rerouteNo="0" devices="tripinfo_motorcycle98.0 routing_motorcycle98.0" vType="motorcycle" speedFactor="1.50" vaporized=""/>
    <tripinfo id="motorcycle827.0" depart="29.00" departLane="341096510#1_0" departPos="1.60" departPosLat="0.00" departSpeed="0.00" departDelay="29.00" arrival="37.00" arrivalLane="341096510#1_0" arrivalPos="86.06" arrivalPosLat="-0.50" arrivalSpeed="21.14" duration="8.00" routeLength="84.46" waitingTime="0.00" waitingCount="0" stopTime="0.00" timeLoss="3.56" rerouteNo="1" devices="tripinfo_motorcycle827.0 routing_motorcycle827.0" vType="motorcycle" speedFactor="1.64" vaporized=""/>
    <tripinfo id="motorcycle710.0" depart="19.00" departLane="341096510#1_0" departPos="1.60" departPosLat="0.00" departSpeed="0.00" departDelay="19.00" arrival="38.00" arrivalLane="350146685#0_0" arrivalPos="176.56" arrivalPosLat="-1.20" arrivalSpeed="6.47" duration="19.00" routeLength="275.87" waitingTime="0.00" waitingCount="0" stopTime="0.00" timeLoss="5.93" rerouteNo="0" devices="tripinfo_motorcycle710.0 routing_motorcycle710.0" vType="motorcycle" speedFactor="1.54" vaporized=""/>
    <tripinfo id="motorcycle250.0" depart="8.00" departLane="362871972#0_0" departPos="1.60" departPosLat="0.00" departSpeed="0.00" departDelay="8.00" arrival="45.00" arrivalLane="-109505207#2_0" arrivalPos="186.51" arrivalPosLat="0.45" arrivalSpeed="20.97" duration="37.00" routeLength="558.74" waitingTime="0.00" waitingCount="0" stopTime="0.00" timeLoss="11.49" rerouteNo="1" devices="tripinfo_motorcycle250.0 routing_motorcycle250.0" vType="motorcycle" speedFactor="1.61" vaporized=""/>
    <tripinfo id="motorcycle47.0" depart="7.00" departLane="-109505208#1_0" departPos="1.60" departPosLat="0.00" departSpeed="0.00" departDelay="7.00" arrival="46.00" arrivalLane="109505208#2_1" arrivalPos="116.59" arrivalPosLat="-1.20" arrivalSpeed="4.64" duration="39.00" routeLength="562.04" waitingTime="0.00" waitingCount="0" stopTime="0.00" timeLoss="11.00" rerouteNo="1" devices="tripinfo_motorcycle47.0 routing_motorcycle47.0" vType="motorcycle" speedFactor="1.48" vaporized=""/>
    <tripinfo id="motorcycle116.0" depart="11.00" departLane="350146691#0_0" departPos="1.60" departPosLat="0.00" departSpeed="0.00" departDelay="11.00" arrival="46.00" arrivalLane="586657042#1_0" arrivalPos="166.70" arrivalPosLat="-1.20" arrivalSpeed="22.55" duration="35.00" routeLength="345.12" waitingTime="4.00" waitingCount="1" stopTime="0.00" timeLoss="18.89" rerouteNo="1" devices="tripinfo_motorcycle116.0 routing_motorcycle116.0" vType="motorcycle" speedFactor="1.66" vaporized=""/>
    <tripinfo id="car250.0" depart="2.00" departLane="362871972#0_0" departPos="5.10" departPosLat="0.00" departSpeed="0.00" departDelay="2.00" arrival="47.00" arrivalLane="-109505207#2_0" arrivalPos="186.51" arrivalPosLat="0.10" arrivalSpeed="14.39" duration="45.00" routeLength="555.24" waitingTime="0.00" waitingCount="0" stopTime="0.00" timeLoss="14.57" rerouteNo="1" devices="tripinfo_car250.0 routing_car250.0" vType="passenger" speedFactor="1.20" vaporized=""/>
    <tripinfo id="car57.0" depart="39.00" departLane="890146632_0" departPos="5.10" departPosLat="0.00" departSpeed="0.00" departDelay="39.00" arrival="49.00" arrivalLane="890146631#1_0" arrivalPos="39.17" arrivalPosLat="0.70" arrivalSpeed="8.10" duration="10.00" routeLength="61.54" waitingTime="0.00" waitingCount="0" stopTime="0.00" timeLoss="7.62" rerouteNo="1" devices="tripinfo_car57.0 routing_car57.0" vType="passenger" speedFactor="1.17" vaporized=""/>
    <tripinfo id="motorcycle58.0" depart="4.00" departLane="-888879165#3_0" departPos="1.60" departPosLat="0.00" departSpeed="0.00" departDelay="4.00" arrival="49.00" arrivalLane="555600348_0" arrivalPos="41.68" arrivalPosLat="-1.20" arrivalSpeed="19.80" duration="45.00" routeLength="423.53" waitingTime="0.00" waitingCount="0" stopTime="0.00" timeLoss="26.61" rerouteNo="1" devices="tripinfo_motorcycle58.0 routing_motorcycle58.0" vType="motorcycle" speedFactor="1.55" vaporized=""/>
    <tripinfo id="car47.0" depart="0.00" departLane="-109505208#1_0" departPos="5.10" departPosLat="0.00" departSpeed="0.00" departDelay="0.00" arrival="53.00" arrivalLane="109505208#2_1" arrivalPos="116.59" arrivalPosLat="0.70" arrivalSpeed="4.25" duration="53.00" routeLength="558.82" waitingTime="1.00" waitingCount="1" stopTime="0.00" timeLoss="19.01" rerouteNo="1" devices="tripinfo_car47.0 routing_car47.0" vType="passenger" speedFactor="1.20" vaporized=""/>
    <tripinfo id="motorcycle872.0" depart="45.00" departLane="890146632_0" departPos="1.60" departPosLat="0.00" departSpeed="0.00" departDelay="45.00" arrival="54.00" arrivalLane="890146631#1_0" arrivalPos="39.17" arrivalPosLat="0.70" arrivalSpeed="14.78" duration="9.00" routeLength="65.04" waitingTime="0.00" waitingCount="0" stopTime="0.00" timeLoss="6.33" rerouteNo="1" devices="tripinfo_motorcycle872.0 routing_motorcycle872.0" vType="motorcycle" speedFactor="1.52" vaporized=""/>
    <tripinfo id="motorcycle667.0" depart="20.00" departLane="515970250_0" departPos="1.60" departPosLat="0.00" departSpeed="0.00" departDelay="20.00" arrival="63.00" arrivalLane="-350146691#1_0" arrivalPos="72.49" arrivalPosLat="-1.20" arrivalSpeed="18.66" duration="43.00" routeLength="425.99" waitingTime="4.00" waitingCount="1" stopTime="0.00" timeLoss="19.46" rerouteNo="1" devices="tripinfo_motorcycle667.0 routing_motorcycle667.0" vType="motorcycle" speedFactor="1.36" vaporized=""/>
    <tripinfo id="motorcycle14.0" depart="26.00" departLane="615037319_0" departPos="1.60" departPosLat="0.00" departSpeed="0.00" departDelay="26.00" arrival="65.00" arrivalLane="362871972#0_0" arrivalPos="144.64" arrivalPosLat="1.40" arrivalSpeed="27.48" duration="39.00" routeLength="210.04" waitingTime="21.00" waitingCount="1" stopTime="0.00" timeLoss="31.41" rerouteNo="0" devices="tripinfo_motorcycle14.0 routing_motorcycle14.0" vType="motorcycle" speedFactor="1.54" vaporized=""/>
    <tripinfo id="car167.0" depart="66.00" departLane="890146631#0_0" departPos="0.54" departPosLat="0.00" departSpeed="0.00" departDelay="66.00" arrival="67.00" arrivalLane="890146631#0_0" arrivalPos="0.54" arrivalPosLat="0.00" arrivalSpeed="1.92" duration="1.00" routeLength="0.00" waitingTime="0.00" waitingCount="0" stopTime="0.00" timeLoss="0.93" rerouteNo="1" devices="tripinfo_car167.0 routing_car167.0" vType="passenger" speedFactor="1.25" vaporized=""/>
    <tripinfo id="car130.0" depart="64.00" departLane="890146631#0_0" departPos="0.54" departPosLat="0.00" departSpeed="0.00" departDelay="64.00" arrival="72.00" arrivalLane="890146631#1_0" arrivalPos="39.17" arrivalPosLat="0.70" arrivalSpeed="14.27" duration="8.00" routeLength="54.46" waitingTime="0.00" waitingCount="0" stopTime="0.00" timeLoss="5.54" rerouteNo="0" devices="tripinfo_car130.0 routing_car130.0" vType="passenger" speedFactor="1.16" vaporized=""/>
    <tripinfo id="car396.0" depart="72.00" departLane="890146631#0_0" departPos="0.54" departPosLat="0.00" departSpeed="0.00" departDelay="72.00" arrival="73.00" arrivalLane="890146631#0_0" arrivalPos="0.54" arrivalPosLat="0.00" arrivalSpeed="2.00" duration="1.00" routeLength="0.00" waitingTime="0.00" waitingCount="0" stopTime="0.00" timeLoss="0.93" rerouteNo="1" devices="tripinfo_car396.0 routing_car396.0" vType="passenger" speedFactor="1.30" vaporized=""/>
    <tripinfo id="motorcycle385.0" depart="25.00" departLane="350146691#1_0" departPos="1.60" departPosLat="0.00" departSpeed="0.00" departDelay="25.00" arrival="73.00" arrivalLane="-350146691#1_0" arrivalPos="72.49" arrivalPosLat="0.95" arrivalSpeed="19.22" duration="48.00" routeLength="148.05" waitingTime="31.00" waitingCount="1" stopTime="0.00" timeLoss="39.70" rerouteNo="0" devices="tripinfo_motorcycle385.0 routing_motorcycle385.0" vType="motorcycle" speedFactor="1.40" vaporized=""/>
    <tripinfo id="motorcycle254.0" depart="9.00" departLane="-109505207#4_0" departPos="1.60" departPosLat="0.00" departSpeed="0.00" departDelay="9.00" arrival="74.00" arrivalLane="109505207#3_0" arrivalPos="159.70" arrivalPosLat="-0.80" arrivalSpeed="21.65" duration="65.00" routeLength="326.68" waitingTime="40.00" waitingCount="2" stopTime="0.00" timeLoss="50.17" rerouteNo="0" devices="tripinfo_motorcycle254.0 routing_motorcycle254.0" vType="motorcycle" speedFactor="1.68" vaporized=""/>
    <tripinfo id="car254.0" depart="0.00" departLane="-109505207#4_0" departPos="5.10" departPosLat="0.00" departSpeed="0.00" departDelay="0.00" arrival="80.00" arrivalLane="109505207#3_0" arrivalPos="159.70" arrivalPosLat="0.30" arrivalSpeed="16.19" duration="80.00" routeLength="323.18" waitingTime="44.00" waitingCount="1" stopTime="0.00" timeLoss="59.18" rerouteNo="0" devices="tripinfo_car254.0 routing_car254.0" vType="passenger" speedFactor="1.21" vaporized=""/>
    <tripinfo id="motorcycle83.0" depart="17.00" departLane="-555600352_0" departPos="1.60" departPosLat="0.00" departSpeed="0.00" departDelay="17.00" arrival="80.00" arrivalLane="586657042#0_1" arrivalPos="198.40" arrivalPosLat="-0.70" arrivalSpeed="5.42" duration="63.00" routeLength="361.86" waitingTime="28.00" waitingCount="2" stopTime="0.00" timeLoss="45.98" rerouteNo="1" devices="tripinfo_motorcycle83.0 routing_motorcycle83.0" vType="motorcycle" speedFactor="1.49" vaporized=""/>
    <tripinfo id="motorcycle167.0" depart="80.00" departLane="890146631#0_0" departPos="0.54" departPosLat="0.00" departSpeed="0.00" departDelay="80.00" arrival="81.00" arrivalLane="890146631#0_0" arrivalPos="0.54" arrivalPosLat="0.00" arrivalSpeed="3.00" duration="1.00" routeLength="0.00" waitingTime="0.00" waitingCount="0" stopTime="0.00" timeLoss="0.89" rerouteNo="1" devices="tripinfo_motorcycle167.0 routing_motorcycle167.0" vType="motorcycle" speedFactor="1.58" vaporized=""/>
    <tripinfo id="motorcycle594.0" depart="10.00" departLane="350146688#5_0" departPos="1.60" departPosLat="0.00" departSpeed="0.00" departDelay="10.00" arrival="81.00" arrivalLane="350146691#1_0" arrivalPos="72.49" arrivalPosLat="-0.90" arrivalSpeed="6.88" duration="71.00" routeLength="354.06" waitingTime="27.00" waitingCount="3" stopTime="0.00" timeLoss="52.37" rerouteNo="1" devices="tripinfo_motorcycle594.0 routing_motorcycle594.0" vType="motorcycle" speedFactor="1.44" vaporized=""/>
    <tripinfo id="motorcycle648.0" depart="27.00" departLane="898487483#0_0" departPos="1.60" departPosLat="0.00" departSpeed="0.00" departDelay="27.00" arrival="83.00" arrivalLane="-888879166_0" arrivalPos="23.35" arrivalPosLat="-1.20" arrivalSpeed="22.19" duration="56.00" routeLength="438.95" waitingTime="14.00" waitingCount="4" stopTime="0.00" timeLoss="35.64" rerouteNo="1" devices="tripinfo_motorcycle648.0 routing_motorcycle648.0" vType="motorcycle" speedFactor="1.42" vaporized=""/>
    <tripinfo id="motorcycle792.0" depart="48.00" departLane="-350146685#1_0" departPos="1.60" departPosLat="0.00" departSpeed="0.00" departDelay="48.00" arrival="83.00" arrivalLane="-350146685#1_0" arrivalPos="176.61" arrivalPosLat="0.60" arrivalSpeed="8.48" duration="35.00" routeLength="175.01" waitingTime="8.00" waitingCount="2" stopTime="0.00" timeLoss="25.12" rerouteNo="1" devices="tripinfo_motorcycle792.0 routing_motorcycle792.0" vType="motorcycle" speedFactor="1.32" vaporized=""/>
    <tripinfo id="car20.0" depart="0.00" departLane="586657042#1_0" departPos="5.10" departPosLat="0.00" departSpeed="0.00" departDelay="0.00" arrival="84.00" arrivalLane="-109505207#4_0" arrivalPos="159.86" arrivalPosLat="0.30" arrivalSpeed="15.22" duration="84.00" routeLength="493.58" waitingTime="26.00" waitingCount="2" stopTime="0.00" timeLoss="51.30" rerouteNo="1" devices="tripinfo_car20.0 routing_car20.0" vType="passenger" speedFactor="1.16" vaporized=""/>
    <tripinfo id="car322.0" depart="67.00" departLane="890146631#0_0" departPos="0.54" departPosLat="0.00" departSpeed="0.00" departDelay="67.00" arrival="85.00" arrivalLane="341096510#1_0" arrivalPos="86.06" arrivalPosLat="0.70" arrivalSpeed="14.80" duration="18.00" routeLength="160.55" waitingTime="0.00" waitingCount="0" stopTime="0.00" timeLoss="7.00" rerouteNo="1" devices="tripinfo_car322.0 routing_car322.0" vType="passenger" speedFactor="1.08" vaporized=""/>
    <tripinfo id="motorcycle396.0" depart="84.00" departLane="890146631#0_0" departPos="0.54" departPosLat="0.00" departSpeed="0.00" departDelay="84.00" arrival="85.00" arrivalLane="890146631#0_0" arrivalPos="0.54" arrivalPosLat="0.00" arrivalSpeed="3.36" duration="1.00" routeLength="0.00" waitingTime="0.00" waitingCount="0" stopTime="0.00" timeLoss="0.88" rerouteNo="1" devices="tripinfo_motorcycle396.0 routing_motorcycle396.0" vType="motorcycle" speedFactor="1.46" vaporized=""/>
    <tripinfo id="motorcycle130.0" depart="79.00" departLane="890146631#0_0" departPos="0.54" departPosLat="0.00" departSpeed="0.00" departDelay="79.00" arrival="86.00" arrivalLane="890146631#1_0" arrivalPos="39.17" arrivalPosLat="0.35" arrivalSpeed="10.08" duration="7.00" routeLength="54.46" waitingTime="0.00" waitingCount="0" stopTime="0.00" timeLoss="5.01" rerouteNo="0" devices="tripinfo_motorcycle130.0 routing_motorcycle130.0" vType="motorcycle" speedFactor="1.72" vaporized=""/>
    <tripinfo id="car5.0" depart="0.00" departLane="-350146691#1_0" departPos="5.10" departPosLat="0.00" departSpeed="0.00" departDelay="0.00" arrival="87.00" arrivalLane="350146685#0_0" arrivalPos="176.56" arrivalPosLat="0.70" arrivalSpeed="7.17" duration="87.00" routeLength="434.53" waitingTime="22.00" waitingCount="3" stopTime="0.00" timeLoss="57.33" rerouteNo="1" devices="tripinfo_car5.0 routing_car5.0" vType="passenger" speedFactor="1.12" vaporized=""/>
    <tripinfo id="motorcycle842.0" depart="23.00" departLane="515970250_0" departPos="1.60" departPosLat="0.00" departSpeed="0.00" departDelay="23.00" arrival="87.00" arrivalLane="-258656153#3_0" arrivalPos="59.73" arrivalPosLat="-1.20" arrivalSpeed="5.53" duration="64.00" routeLength="139.48" waitingTime="31.00" waitingCount="3" stopTime="0.00" timeLoss="57.11" rerouteNo="1" devices="tripinfo_motorcycle842.0 routing_motorcycle842.0" vType="motorcycle" speedFactor="1.52" vaporized=""/>
    <tripinfo id="car385.0" depart="9.00" departLane="350146691#1_0" departPos="5.10" departPosLat="0.00" departSpeed="0.00" departDelay="9.00" arrival="88.00" arrivalLane="-350146691#1_0" arrivalPos="72.49" arrivalPosLat="0.70" arrivalSpeed="14.90" duration="79.00" routeLength="144.55" waitingTime="48.00" waitingCount="3" stopTime="0.00" timeLoss="68.22" rerouteNo="0" devices="tripinfo_car385.0 routing_car385.0" vType="passenger" speedFactor="1.08" vaporized=""/>
    <tripinfo id="motorcycle905.0" depart="44.00" departLane="109505208#2_0" departPos="1.60" departPosLat="0.00" departSpeed="0.00" departDelay="44.00" arrival="91.00" arrivalLane="898487483#1_0" arrivalPos="23.35" arrivalPosLat="0.80" arrivalSpeed="15.09" duration="47.00" routeLength="483.76" waitingTime="11.00" waitingCount="2" stopTime="0.00" timeLoss="27.19" rerouteNo="1" devices="tripinfo_motorcycle905.0 routing_motorcycle905.0" vType="motorcycle" speedFactor="1.52" vaporized=""/>
    <tripinfo id="motorcycle372.0" depart="16.00" departLane="-586664246#4_0" departPos="1.60" departPosLat="0.00" departSpeed="0.00" departDelay="16.00" arrival="93.00" arrivalLane="898487483#1_0" arrivalPos="23.35" arrivalPosLat="-0.20" arrivalSpeed="13.75" duration="77.00" routeLength="304.64" waitingTime="27.00" waitingCount="6" stopTime="0.00" timeLoss="64.88" rerouteNo="1" devices="tripinfo_motorcycle372.0 routing_motorcycle372.0" vType="motorcycle" speedFactor="1.37" vaporized=""/>
    <tripinfo id="motorcycle412.0" depart="31.00" departLane="898487493#1_0" departPos="1.60" departPosLat="0.00" departSpeed="0.00" departDelay="31.00" arrival="93.00" arrivalLane="341096510#1_0" arrivalPos="86.06" arrivalPosLat="-1.20" arrivalSpeed="19.40" duration="62.00" routeLength="194.70" waitingTime="39.00" waitingCount="1" stopTime="0.00" timeLoss="51.21" rerouteNo="1" devices="tripinfo_motorcycle412.0 routing_motorcycle412.0" vType="motorcycle" speedFactor="1.43" vaporized=""/>
    <tripinfo id="motorcycle454.0" depart="14.00" departLane="-109505207#4_0" departPos="1.60" departPosLat="0.00" departSpeed="0.00" departDelay="14.00" arrival="93.00" arrivalLane="362871972#1_1" arrivalPos="355.36" arrivalPosLat="-1.15" arrivalSpeed="26.51" duration="79.00" routeLength="742.95" waitingTime="34.00" waitingCount="1" stopTime="0.00" timeLoss="45.95" rerouteNo="1" devices="tripinfo_motorcycle454.0 routing_motorcycle454.0" vType="motorcycle" speedFactor="1.50" vaporized=""/>
    <tripinfo id="motorcycle735.0" depart="35.00" departLane="898487493#1_0" departPos="1.60" departPosLat="0.00" departSpeed="0.00" departDelay="35.00" arrival="93.00" arrivalLane="341096510#1_0" arrivalPos="86.06" arrivalPosLat="0.50" arrivalSpeed="20.54" duration="58.00" routeLength="194.70" waitingTime="33.00" waitingCount="1" stopTime="0.00" timeLoss="47.31" rerouteNo="1" devices="tripinfo_motorcycle735.0 routing_motorcycle735.0" vType="motorcycle" speedFactor="1.59" vaporized=""/>
    <tripinfo id="motorcycle268.0" depart="14.00" departLane="-350146688#3_0" departPos="1.60" departPosLat="0.00" departSpeed="0.00" departDelay="14.00" arrival="96.00" arrivalLane="362871972#1_1" arrivalPos="355.36" arrivalPosLat="-0.60" arrivalSpeed="26.61" duration="82.00" routeLength="894.01" waitingTime="25.00" waitingCount="1" stopTime="0.00" timeLoss="43.38" rerouteNo="1" devices="tripinfo_motorcycle268.0 routing_motorcycle268.0" vType="motorcycle" speedFactor="1.59" vaporized=""/>
    <tripinfo id="motorcycle322.0" depart="81.00" departLane="890146631#0_0" departPos="0.54" departPosLat="0.00" departSpeed="0.00" departDelay="81.00" arrival="96.00" arrivalLane="341096510#1_0" arrivalPos="86.06" arrivalPosLat="-0.40" arrivalSpeed="19.29" duration="15.00" routeLength="160.55" waitingTime="0.00" waitingCount="0" stopTime="0.00" timeLoss="6.56" rerouteNo="1" devices="tripinfo_motorcycle322.0 routing_motorcycle322.0" vType="motorcycle" speedFactor="1.52" vaporized=""/>
    <tripinfo id="motorcycle10.0" depart="19.00" departLane="587800915#0_0" departPos="1.60" departPosLat="0.00" departSpeed="0.00" departDelay="19.00" arrival="97.00" arrivalLane="586657908#0_1" arrivalPos="132.62" arrivalPosLat="0.40" arrivalSpeed="15.83" duration="78.00" routeLength="684.10" waitingTime="13.00" waitingCount="3" stopTime="0.00" timeLoss="45.36" rerouteNo="1" devices="tripinfo_motorcycle10.0 routing_motorcycle10.0" vType="motorcycle" speedFactor="1.44" vaporized=""/>
    <tripinfo id="motorcycle780.0" depart="39.00" departLane="350146688#0_0" departPos="1.60" departPosLat="0.00" departSpeed="0.00" departDelay="39.00" arrival="97.00" arrivalLane="362871972#1_1" arrivalPos="355.36" arrivalPosLat="-0.50" arrivalSpeed="26.40" duration="58.00" routeLength="819.64" waitingTime="6.00" waitingCount="1" stopTime="0.00" timeLoss="22.21" rerouteNo="1" devices="tripinfo_motorcycle780.0 routing_motorcycle780.0" vType="motorcycle" speedFactor="1.55" vaporized=""/>
    <tripinfo id="motorcycle5.0" depart="31.00" departLane="-350146691#1_0" departPos="1.60" departPosLat="0.00" departSpeed="0.00" departDelay="31.00" arrival="99.00" arrivalLane="350146685#0_0" arrivalPos="176.56" arrivalPosLat="0.30" arrivalSpeed="8.24" duration="68.00" routeLength="438.03" waitingTime="15.00" waitingCount="2" stopTime="0.00" timeLoss="45.57" rerouteNo="1" devices="tripinfo_motorcycle5.0 routing_motorcycle5.0" vType="motorcycle" speedFactor="1.49" vaporized=""/>
    <tripinfo id="car268.0" depart="2.00" departLane="-350146688#3_0" departPos="5.10" departPosLat="0.00" departSpeed="0.00" departDelay="2.00" arrival="103.00" arrivalLane="362871972#1_1" arrivalPos="355.36" arrivalPosLat="-0.70" arrivalSpeed="32.49" duration="101.00" routeLength="890.51" waitingTime="35.00" waitingCount="1" stopTime="0.00" timeLoss="59.92" rerouteNo="1" devices="tripinfo_car268.0 routing_car268.0" vType="passenger" speedFactor="1.35" vaporized=""/>
    <tripinfo id="motorcycle56.0" depart="9.00" departLane="323987231#0_0" departPos="1.60" departPosLat="0.00" departSpeed="0.00" departDelay="9.00" arrival="104.00" arrivalLane="-350146688#1_0" arrivalPos="62.35" arrivalPosLat="-0.90" arrivalSpeed="19.45" duration="95.00" routeLength="706.14" waitingTime="38.00" waitingCount="2" stopTime="0.00" timeLoss="61.56" rerouteNo="1" devices="tripinfo_motorcycle56.0 routing_motorcycle56.0" vType="motorcycle" speedFactor="1.51" vaporized=""/>
    <tripinfo id="motorcycle964.0" depart="47.00" departLane="109505208#2_0" departPos="1.60" departPosLat="0.00" departSpeed="0.00" departDelay="47.00" arrival="104.00" arrivalLane="888879165#0_0" arrivalPos="137.83" arrivalPosLat="0.80" arrivalSpeed="19.75" duration="57.00" routeLength="621.89" waitingTime="8.00" waitingCount="2" stopTime="0.00" timeLoss="29.72" rerouteNo="1" devices="tripinfo_motorcycle964.0 routing_motorcycle964.0" vType="motorcycle" speedFactor="1.48" vaporized=""/>
    <tripinfo id="motorcycle29.0" depart="10.00" departLane="-350146688#3_0" departPos="1.60" departPosLat="0.00" departSpeed="0.00" departDelay="10.00" arrival="105.00" arrivalLane="109505207#3_0" arrivalPos="159.70" arrivalPosLat="-0.80" arrivalSpeed="19.58" duration="95.00" routeLength="475.35" waitingTime="34.00" waitingCount="4" stopTime="0.00" timeLoss="69.93" rerouteNo="1" devices="tripinfo_motorcycle29.0 routing_motorcycle29.0" vType="motorcycle" speedFactor="1.44" vaporized=""/>