<?xml version="1.0" encoding="UTF-8"?>

<!-- generated on 2025-11-01 21:01:31 by Eclipse SUMO GUI Version 1.24.0
<sumoConfiguration xmlns:xsi="http://www.w3.org/2001/XMLSchema-instance" xsi:noNamespaceSchemaLocation="http://sumo.dlr.de/xsd/sumoConfiguration.xsd">

    <input>
        <net-file value="./osm.net.xml"/>
        <route-files value="./routes.rou.xml"/>
        <additional-files value="./osm.poly.xml.gz,./osm_stops.add.xml,./output.add.xml"/>
    </input>

    <output>
        <tripinfo-output value="./tripinfos.xml"/>
        <stop-output value="./stopinfos.xml"/>
        <statistic-output value="./stats.xml"/>
    </output>

    <time>
        <end value="600"/>
    </time>

    <processing>
        <ignore-route-errors value="true"/>
        <tls.actuated.jam-threshold value="30"/>
    </processing>

    <routing>
        <device.rerouting.adaptation-steps value="18"/>
        <device.rerouting.adaptation-interval value="10"/>
    </routing>

    <report>
        <verbose value="true"/>
        <duration-log.statistics value="true"/>
        <no-step-log value="true"/>
    </report>

    <random_number>
        <seed value="57"/>
    </random_number>

    <gui_only>
        <gui-settings-file value="./osm.view.xml"/>
    </gui_only>

</sumoConfiguration>
-->

<tripinfos xmlns:xsi="http://www.w3.org/2001/XMLSchema-instance" xsi:noNamespaceSchemaLocation="http://sumo.dlr.de/xsd/tripinfo_file.xsd">
    <tripinfo id="2" depart="10.00" departLane="368096545#1_0" departPos="5.10" departSpeed="0.00" departDelay="0.00" arrival="95.00" arrivalLane="364177895#1_1" arrivalPos="114.18" arrivalSpeed="21.90" duration="85.00" routeLength="1029.62" waitingTime="0.00" waitingCount="0" stopTime="0.00" timeLoss="13.43" rerouteNo="0" devices="tripinfo_2" vType="DEFAULT_VEHTYPE" speedFactor="0.99" vaporized=""/>
    <tripinfo id="1" depart="5.00" departLane="-368104091#4_0" departPos="5.10" departSpeed="0.00" departDelay="0.00" arrival="128.00" arrivalLane="-367762382#3_0" arrivalPos="29.64" arrivalSpeed="11.14" duration="123.00" routeLength="1252.59" waitingTime="0.00" waitingCount="0" stopTime="0.00" timeLoss="16.95" rerouteNo="0" devices="tripinfo_1" vType="DEFAULT_VEHTYPE" speedFactor="0.88" vaporized=""/>
    <tripinfo id="16" depart="80.00" departLane="1408953124#1_0" departPos="5.10" departSpeed="0.00" departDelay="0.00" arrival="161.00" arrivalLane="795671604#7_0" arrivalPos="37.83" arrivalSpeed="14.82" duration="81.00" routeLength="956.27" waitingTime="0.00" waitingCount="0" stopTime="0.00" timeLoss="11.62" rerouteNo="0" devices="tripinfo_16" vType="DEFAULT_VEHTYPE" speedFactor="1.08" vaporized=""/>
    <tripinfo id="19" depart="95.00" departLane="586664246#3_0" departPos="5.10" departSpeed="0.00" departDelay="0.00" arrival="170.00" arrivalLane="336988370#1_0" arrivalPos="53.79" arrivalSpeed="13.69" duration="75.00" routeLength="700.64" waitingTime="6.00" waitingCount="1" stopTime="0.00" timeLoss="28.20" rerouteNo="0" devices="tripinfo_19" vType="DEFAULT_VEHTYPE" speedFactor="1.01" vaporized=""/>
    <tripinfo id="4" depart="20.00" departLane="-795671604#0_0" departPos="5.10" departSpeed="0.00" departDelay="0.00" arrival="213.00" arrivalLane="-109505208#2_0" arrivalPos="20.98" arrivalSpeed="13.59" duration="193.00" routeLength="1601.24" waitingTime="27.00" waitingCount="4" stopTime="0.00" timeLoss="64.61" rerouteNo="0" devices="tripinfo_4" vType="DEFAULT_VEHTYPE" speedFactor="1.03" vaporized=""/>
    <tripinfo id="6" depart="30.00" departLane="-109505207#3_0" departPos="5.10" departSpeed="0.00" departDelay="0.00" arrival="215.00" arrivalLane="-367194255#3_0" arrivalPos="12.30" arrivalSpeed="10.21" duration="185.00" routeLength="1749.28" waitingTime="36.00" waitingCount="1" stopTime="0.00" timeLoss="71.21" rerouteNo="0" devices="tripinfo_6" vType="DEFAULT_VEHTYPE" speedFactor="1.14" vaporized=""/>
    <tripinfo id="23" depart="115.00" departLane="-336988370#0_0" departPos="5.10" departSpeed="0.00" departDelay="0.00" arrival="217.00" arrivalLane="-368104091#3_0" arrivalPos="25.34" arrivalSpeed="13.61" duration="102.00" routeLength="777.06" waitingTime="19.00" waitingCount="1" stopTime="0.00" timeLoss="45.03" rerouteNo="0" devices="tripinfo_23" vType="DEFAULT_VEHTYPE" speedFactor="0.98" vaporized=""/>
    <tripinfo id="3" depart="15.00" departLane="615037319#0_0" departPos="5.10" departSpeed="0.00" departDelay="0.00" arrival="222.00" arrivalLane="-227100507#1_0" arrivalPos="27.62" arrivalSpeed="11.45" duration="207.00" routeLength="1545.86" waitingTime="55.00" waitingCount="3" stopTime="0.00" timeLoss="96.52" rerouteNo="0" devices="tripinfo_3" vType="DEFAULT_VEHTYPE" speedFactor="0.90" vaporized=""/>
    <tripinfo id="20" depart="100.00" departLane="367707574#2_0" departPos="5.10" departSpeed="0.00" departDelay="0.00" arrival="237.00" arrivalLane="-116690480#2_0" arrivalPos="2.31" arrivalSpeed="8.52" duration="137.00" routeLength="1416.60" waitingTime="0.00" waitingCount="0" stopTime="0.00" timeLoss="17.26" rerouteNo="0" devices="tripinfo_20" vType="DEFAULT_VEHTYPE" speedFactor="0.93" vaporized=""/>
    <tripinfo id="27" depart="135.00" departLane="-34990516#1_0" departPos="5.10" departSpeed="0.00" departDelay="0.00" arrival="254.00" arrivalLane="368096544#3_0" arrivalPos="68.52" arrivalSpeed="15.37" duration="119.00" routeLength="1511.81" waitingTime="0.00" waitingCount="0" stopTime="0.00" timeLoss="21.05" rerouteNo="0" devices="tripinfo_27" vType="DEFAULT_VEHTYPE" speedFactor="1.15" vaporized=""/>
    <tripinfo id="12" depart="60.00" departLane="739723515#0_0" departPos="5.10" departSpeed="0.00" departDelay="0.00" arrival="259.00" arrivalLane="-555601518_0" arrivalPos="0.20" arrivalSpeed="3.44" duration="199.00" routeLength="1333.18" waitingTime="102.00" waitingCount="4" stopTime="0.00" timeLoss="143.54" rerouteNo="0" devices="tripinfo_12" vType="DEFAULT_VEHTYPE" speedFactor="1.05" vaporized=""/>
    <tripinfo id="22" depart="110.00" departLane="-226946949_0" departPos="5.10" departSpeed="0.00" departDelay="0.00" arrival="269.00" arrivalLane="-368027034_0" arrivalPos="22.22" arrivalSpeed="7.12" duration="159.00" routeLength="1840.74" waitingTime="3.00" waitingCount="1" stopTime="0.00" timeLoss="31.62" rerouteNo="0" devices="tripinfo_22" vType="DEFAULT_VEHTYPE" speedFactor="1.00" vaporized=""/>
    <tripinfo id="13" depart="65.00" departLane="-227131720#2_0" departPos="5.10" departSpeed="0.00" departDelay="0.00" arrival="270.00" arrivalLane="-323987231#1_0" arrivalPos="155.74" arrivalSpeed="12.89" duration="205.00" routeLength="2218.49" waitingTime="0.00" waitingCount="0" stopTime="0.00" timeLoss="23.16" rerouteNo="0" devices="tripinfo_13" vType="DEFAULT_VEHTYPE" speedFactor="0.97" vaporized=""/>
    <tripinfo id="0" depart="0.00" departLane="341456542_0" departPos="5.10" departSpeed="0.00" departDelay="0.00" arrival="293.00" arrivalLane="-109505207#4_0" arrivalPos="95.61" arrivalSpeed="12.16" duration="293.00" routeLength="2924.47" waitingTime="55.00" waitingCount="4" stopTime="0.00" timeLoss="103.18" rerouteNo="0" devices="tripinfo_0" vType="DEFAULT_VEHTYPE" speedFactor="0.92" vaporized=""/>
    <tripinfo id="28" depart="140.00" departLane="-34990514#4_0" departPos="2.83" departSpeed="0.00" departDelay="0.00" arrival="293.00" arrivalLane="-620772305#0_0" arrivalPos="15.40" arrivalSpeed="8.01" duration="153.00" routeLength="936.24" waitingTime="74.00" waitingCount="2" stopTime="0.00" timeLoss="94.26" rerouteNo="0" devices="tripinfo_28" vType="DEFAULT_VEHTYPE" speedFactor="1.21" vaporized=""/>
    <tripinfo id="18" depart="90.00" departLane="555601518_0" departPos="0.20" departSpeed="0.00" departDelay="0.00" arrival="296.00" arrivalLane="33836788#2_0" arrivalPos="74.14" arrivalSpeed="13.08" duration="206.00" routeLength="2110.37" waitingTime="81.00" waitingCount="4" stopTime="0.00" timeLoss="118.98" rerouteNo="0" devices="tripinfo_18" vType="DEFAULT_VEHTYPE" speedFactor="0.96" vaporized=""/>
    <tripinfo id="32" depart="160.00" departLane="-368027034_0" departPos="5.10" departSpeed="0.00" departDelay="0.00" arrival="308.00" arrivalLane="-109505208#4_0" arrivalPos="64.50" arrivalSpeed="13.22" duration="148.00" routeLength="1333.61" waitingTime="10.00" waitingCount="2" stopTime="0.00" timeLoss="44.65" rerouteNo="0" devices="tripinfo_32" vType="DEFAULT_VEHTYPE" speedFactor="1.00" vaporized=""/>
    <tripinfo id="38" depart="190.00" departLane="-368104071#4_0" departPos="5.10" departSpeed="0.00" departDelay="0.00" arrival="323.00" arrivalLane="-368096545#0_0" arrivalPos="0.60" arrivalSpeed="10.29" duration="133.00" routeLength="1647.49" waitingTime="0.00" waitingCount="0" stopTime="0.00" timeLoss="18.29" rerouteNo="0" devices="tripinfo_38" vType="DEFAULT_VEHTYPE" speedFactor="1.02" vaporized=""/>
    <tripinfo id="25" depart="125.00" departLane="-368104071#5_0" departPos="5.10" departSpeed="0.00" departDelay="0.00" arrival="334.00" arrivalLane="620862579_0" arrivalPos="47.96" arrivalSpeed="15.70" duration="209.00" routeLength="1949.67" waitingTime="63.00" waitingCount="2" stopTime="0.00" timeLoss="107.06" rerouteNo="0" devices="tripinfo_25" vType="DEFAULT_VEHTYPE" speedFactor="1.19" vaporized=""/>
    <tripinfo id="8" depart="40.00" departLane="-367762382#3_0" departPos="5.10" departSpeed="0.00" departDelay="0.00" arrival="343.00" arrivalLane="337132072#5_0" arrivalPos="6.21" arrivalSpeed="14.16" duration="303.00" routeLength="2982.84" waitingTime="66.00" waitingCount="2" stopTime="0.00" timeLoss="111.08" rerouteNo="0" devices="tripinfo_8" vType="DEFAULT_VEHTYPE" speedFactor="1.03" vaporized=""/>
    <tripinfo id="30" depart="150.00" departLane="227131720#1_0" departPos="5.10" departSpeed="0.00" departDelay="0.00" arrival="349.00" arrivalLane="367194255#3_0" arrivalPos="12.30" arrivalSpeed="11.75" duration="199.00" routeLength="2076.16" waitingTime="0.00" waitingCount="0" stopTime="0.00" timeLoss="20.93" rerouteNo="0" devices="tripinfo_30" vType="DEFAULT_VEHTYPE" speedFactor="0.90" vaporized=""/>
    <tripinfo id="14" depart="70.00" departLane="586657908#4_0" departPos="5.10" departSpeed="0.00" departDelay="0.00" arrival="354.00" arrivalLane="33768751_0" arrivalPos="2.84" arrivalSpeed="12.66" duration="284.00" routeLength="1173.44" waitingTime="192.00" waitingCount="5" stopTime="0.00" timeLoss="234.77" rerouteNo="0" devices="tripinfo_14" vType="DEFAULT_VEHTYPE" speedFactor="0.99" vaporized=""/>
    <tripinfo id="42" depart="212.00" departLane="977815033#0_0" departPos="2.48" departSpeed="0.00" departDelay="2.00" arrival="362.00" arrivalLane="116690596#2_0" arrivalPos="60.36" arrivalSpeed="16.01" duration="150.00" routeLength="2126.22" waitingTime="0.00" waitingCount="0" stopTime="0.00" timeLoss="34.67" rerouteNo="0" devices="tripinfo_42" vType="DEFAULT_VEHTYPE" speedFactor="1.04" vaporized=""/>
    <tripinfo id="9" depart="45.00" departLane="462987551_0" departPos="5.10" departSpeed="0.00" departDelay="0.00" arrival="383.00" arrivalLane="-1012133718#3_0" arrivalPos="15.97" arrivalSpeed="11.38" duration="338.00" routeLength="2536.40" waitingTime="114.00" waitingCount="2" stopTime="0.00" timeLoss="156.03" rerouteNo="0" devices="tripinfo_9" vType="DEFAULT_VEHTYPE" speedFactor="0.92" vaporized=""/>
    <tripinfo id="7" depart="35.00" departLane="34990516#0_0" departPos="1.44" departSpeed="0.00" departDelay="0.00" arrival="387.00" arrivalLane="226946949_0" arrivalPos="119.32" arrivalSpeed="14.78" duration="352.00" routeLength="3188.27" waitingTime="93.00" waitingCount="2" stopTime="0.00" timeLoss="133.64" rerouteNo="0" devices="tripinfo_7" vType="DEFAULT_VEHTYPE" speedFactor="1.08" vaporized=""/>
    <tripinfo id="63" depart="315.00" departLane="587800918#0_0" departPos="5.10" departSpeed="0.00" departDelay="0.00" arrival="387.00" arrivalLane="586657042#1_1" arrivalPos="75.61" arrivalSpeed="11.86" duration="72.00" routeLength="671.43" waitingTime="4.00" waitingCount="1" stopTime="0.00" timeLoss="25.05" rerouteNo="0" devices="tripinfo_63" vType="DEFAULT_VEHTYPE" speedFactor="0.88" vaporized=""/>
    <tripinfo id="17" depart="85.00" departLane="-620771557_0" departPos="5.10" departSpeed="0.00" departDelay="0.00" arrival="388.00" arrivalLane="227100507#0_0" arrivalPos="60.20" arrivalSpeed="10.89" duration="303.00" routeLength="2096.32" waitingTime="107.00" waitingCount="2" stopTime="0.00" timeLoss="143.63" rerouteNo="0" devices="tripinfo_17" vType="DEFAULT_VEHTYPE" speedFactor="0.88" vaporized=""/>
    <tripinfo id="10" depart="50.00" departLane="462986979_0" departPos="5.10" departSpeed="0.00" departDelay="0.00" arrival="403.00" arrivalLane="367700934#3_0" arrivalPos="105.39" arrivalSpeed="7.07" duration="353.00" routeLength="2548.46" waitingTime="125.00" waitingCount="2" stopTime="0.00" timeLoss="158.98" rerouteNo="0" devices="tripinfo_10" vType="DEFAULT_VEHTYPE" speedFactor="0.94" vaporized=""/>
    <tripinfo id="15" depart="75.00" departLane="462987550_0" departPos="5.10" departSpeed="0.00" departDelay="0.00" arrival="410.00" arrivalLane="368096544#3_0" arrivalPos="68.52" arrivalSpeed="12.00" duration="335.00" routeLength="3170.95" waitingTime="86.00" waitingCount="2" stopTime="0.00" timeLoss="136.96" rerouteNo="0" devices="tripinfo_15" vType="DEFAULT_VEHTYPE" speedFactor="0.91" vaporized=""/>
    <tripinfo id="5" depart="25.00" departLane="-367762382#2_0" departPos="5.10" departSpeed="0.00" departDelay="0.00" arrival="411.00" arrivalLane="116690593#1_0" arrivalPos="43.97" arrivalSpeed="13.95" duration="386.00" routeLength="2845.57" waitingTime="145.00" waitingCount="2" stopTime="0.00" timeLoss="182.23" rerouteNo="0" devices="tripinfo_5" vType="DEFAULT_VEHTYPE" speedFactor="1.01" vaporized=""/>
    <tripinfo id="53" depart="265.00" departLane="1012133718#1_0" departPos="5.10" departSpeed="0.00" departDelay="0.00" arrival="426.00" arrivalLane="628456652#1_0" arrivalPos="42.96" arrivalSpeed="14.06" duration="161.00" routeLength="1743.54" waitingTime="15.00" waitingCount="1" stopTime="0.00" timeLoss="60.85" rerouteNo="0" devices="tripinfo_53" vType="DEFAULT_VEHTYPE" speedFactor="1.09" vaporized=""/>
    <tripinfo id="40" depart="200.00" departLane="336988370#1_0" departPos="5.10" departSpeed="0.00" departDelay="0.00" arrival="427.00" arrivalLane="615037322_1" arrivalPos="985.20" arrivalSpeed="15.07" duration="227.00" routeLength="2085.16" waitingTime="76.00" waitingCount="3" stopTime="0.00" timeLoss="116.91" rerouteNo="0" devices="tripinfo_40" vType="DEFAULT_VEHTYPE" speedFactor="0.97" vaporized=""/>
    <tripinfo id="60" depart="300.00" departLane="368204852_0" departPos="5.10" departSpeed="0.00" departDelay="0.00" arrival="435.00" arrivalLane="1324287528#2_0" arrivalPos="15.91" arrivalSpeed="14.32" duration="135.00" routeLength="1770.29" waitingTime="0.00" waitingCount="0" stopTime="0.00" timeLoss="34.43" rerouteNo="0" devices="tripinfo_60" vType="DEFAULT_VEHTYPE" speedFactor="1.08" vaporized=""/>
    <tripinfo id="55" depart="275.00" departLane="116690480#1_0" departPos="5.10" departSpeed="0.00" departDelay="0.00" arrival="446.00" arrivalLane="-350146685#1_0" arrivalPos="83.10" arrivalSpeed="12.91" duration="171.00" routeLength="1809.62" waitingTime="23.00" waitingCount="1" stopTime="0.00" timeLoss="56.45" rerouteNo="0" devices="tripinfo_55" vType="DEFAULT_VEHTYPE" speedFactor="1.01" vaporized=""/>
    <tripinfo id="35" depart="175.00" departLane="587800915#4_0" departPos="5.10" departSpeed="0.00" departDelay="0.00" arrival="449.00" arrivalLane="-462986979_0" arrivalPos="49.78" arrivalSpeed="14.90" duration="274.00" routeLength="2528.48" waitingTime="118.00" waitingCount="2" stopTime="0.00" timeLoss="152.24" rerouteNo="0" devices="tripinfo_35" vType="DEFAULT_VEHTYPE" speedFactor="1.12" vaporized=""/>
    <tripinfo id="34" depart="170.00" departLane="-367707574#0_0" departPos="5.10" departSpeed="0.00" departDelay="0.00" arrival="452.00" arrivalLane="620870374_0" arrivalPos="48.34" arrivalSpeed="15.99" duration="282.00" routeLength="2618.58" waitingTime="79.00" waitingCount="2" stopTime="0.00" timeLoss="128.93" rerouteNo="0" devices="tripinfo_34" vType="DEFAULT_VEHTYPE" speedFactor="1.16" vaporized=""/>
    <tripinfo id="50" depart="250.00" departLane="364177895#1_0" departPos="5.10" departSpeed="0.00" departDelay="0.00" arrival="453.00" arrivalLane="1408953126#1_0" arrivalPos="79.23" arrivalSpeed="14.51" duration="203.00" routeLength="1928.12" waitingTime="38.00" waitingCount="2" stopTime="0.00" timeLoss="85.88" rerouteNo="0" devices="tripinfo_50" vType="DEFAULT_VEHTYPE" speedFactor="1.07" vaporized=""/>
    <tripinfo id="46" depart="230.00" departLane="-1305093056_0" departPos="0.34" departSpeed="0.00" departDelay="0.00" arrival="457.00" arrivalLane="-620775234#1_0" arrivalPos="51.60" arrivalSpeed="12.83" duration="227.00" routeLength="1793.86" waitingTime="103.00" waitingCount="2" stopTime="0.00" timeLoss="129.45" rerouteNo="0" devices="tripinfo_46" vType="DEFAULT_VEHTYPE" speedFactor="1.00" vaporized=""/>
    <tripinfo id="21" depart="105.00" departLane="-368027027#1_0" departPos="5.10" departSpeed="0.00" departDelay="0.00" arrival="459.00" arrivalLane="-380090117#1_0" arrivalPos="0.20" arrivalSpeed="2.37" duration="354.00" routeLength="3026.51" waitingTime="66.00" waitingCount="2" stopTime="0.00" timeLoss="105.48" rerouteNo="0" devices="tripinfo_21" vType="DEFAULT_VEHTYPE" speedFactor="0.98" vaporized=""/>
    <tripinfo id="41" depart="205.00" departLane="-620862579_0" departPos="5.10" departSpeed="0.00" departDelay="0.00" arrival="464.00" arrivalLane="-367762382#1_0" arrivalPos="12.00" arrivalSpeed="12.71" duration="259.00" routeLength="2182.40" waitingTime="100.00" waitingCount="2" stopTime="0.00" timeLoss="141.57" rerouteNo="0" devices="tripinfo_41" vType="DEFAULT_VEHTYPE" speedFactor="0.92" vaporized=""/>
    <tripinfo id="39" depart="195.00" departLane="292749336#0_0" departPos="5.10" departSpeed="0.00" departDelay="0.00" arrival="465.00" arrivalLane="-368104071#0_0" arrivalPos="42.95" arrivalSpeed="7.37" duration="270.00" routeLength="882.73" waitingTime="145.00" waitingCount="2" stopTime="0.00" timeLoss="176.35" rerouteNo="0" devices="tripinfo_39" vType="DEFAULT_VEHTYPE" speedFactor="0.94" vaporized=""/>
    <tripinfo id="72" depart="360.00" departLane="1408953126#0_0" departPos="0.10" departSpeed="0.00" departDelay="0.00" arrival="465.00" arrivalLane="368096544#3_0" arrivalPos="68.52" arrivalSpeed="14.69" duration="105.00" routeLength="1244.92" waitingTime="0.00" waitingCount="0" stopTime="0.00" timeLoss="14.81" rerouteNo="0" devices="tripinfo_72" vType="DEFAULT_VEHTYPE" speedFactor="1.09" vaporized=""/>
    <tripinfo id="81" depart="405.00" departLane="586664246#2_0" departPos="5.10" departSpeed="0.00" departDelay="0.00" arrival="465.00" arrivalLane="-1324287528#3_0" arrivalPos="0.20" arrivalSpeed="3.43" duration="60.00" routeLength="382.42" waitingTime="19.00" waitingCount="1" stopTime="0.00" timeLoss="35.86" rerouteNo="0" devices="tripinfo_81" vType="DEFAULT_VEHTYPE" speedFactor="0.96" vaporized=""/>
    <tripinfo id="36" depart="180.00" departLane="350146685#0_0" departPos="5.10" departSpeed="0.00" departDelay="0.00" arrival="472.00" arrivalLane="-620862578#4_0" arrivalPos="25.67" arrivalSpeed="11.38" duration="292.00" routeLength="3136.79" waitingTime="74.00" waitingCount="3" stopTime="0.00" timeLoss="136.34" rerouteNo="0" devices="tripinfo_36" vType="DEFAULT_VEHTYPE" speedFactor="1.13" vaporized=""/>
    <tripinfo id="54" depart="270.00" departLane="587800915#4_0" departPos="5.10" departSpeed="0.00" departDelay="0.00" arrival="472.00" arrivalLane="-368104071#0_0" arrivalPos="42.95" arrivalSpeed="8.60" duration="202.00" routeLength="1276.50" waitingTime="46.00" waitingCount="3" stopTime="0.00" timeLoss="100.57" rerouteNo="0" devices="tripinfo_54" vType="DEFAULT_VEHTYPE" speedFactor="1.04" vaporized=""/>
    <tripinfo id="51" depart="255.00" departLane="-368104071#5_0" departPos="5.10" departSpeed="0.00" departDelay="0.00" arrival="478.00" arrivalLane="34990515#1_0" arrivalPos="26.62" arrivalSpeed="13.50" duration="223.00" routeLength="1605.87" waitingTime="75.00" waitingCount="2" stopTime="0.00" timeLoss="99.31" rerouteNo="0" devices="tripinfo_51" vType="DEFAULT_VEHTYPE" speedFactor="0.97" vaporized=""/>
    <tripinfo id="74" depart="370.00" departLane="977815031_0" departPos="5.10" departSpeed="0.00" departDelay="0.00" arrival="481.00" arrivalLane="350146685#0_0" arrivalPos="87.95" arrivalSpeed="13.68" duration="111.00" routeLength="1038.70" waitingTime="9.00" waitingCount="1" stopTime="0.00" timeLoss="36.36" rerouteNo="0" devices="tripinfo_74" vType="DEFAULT_VEHTYPE" speedFactor="1.04" vaporized=""/>
    <tripinfo id="29" depart="145.00" departLane="898487483#0_0" departPos="5.10" departSpeed="0.00" departDelay="0.00" arrival="487.00" arrivalLane="34990514#4_0" arrivalPos="2.83" arrivalSpeed="8.27" duration="342.00" routeLength="2601.59" waitingTime="155.00" waitingCount="3" stopTime="0.00" timeLoss="204.05" rerouteNo="0" devices="tripinfo_29" vType="DEFAULT_VEHTYPE" speedFactor="1.01" vaporized=""/>
    <tripinfo id="31" depart="155.00" departLane="586657908#1_0" departPos="5.10" departSpeed="0.00" departDelay="0.00" arrival="487.00" arrivalLane="368209083_0" arrivalPos="28.59" arrivalSpeed="13.11" duration="332.00" routeLength="2090.64" waitingTime="166.00" waitingCount="4" stopTime="0.00" timeLoss="221.09" rerouteNo="0" devices="tripinfo_31" vType="DEFAULT_VEHTYPE" speedFactor="1.15" vaporized=""/>
    <tripinfo id="49" depart="245.00" departLane="-103759573_0" departPos="5.10" departSpeed="0.00" departDelay="0.00" arrival="490.00" arrivalLane="368027034_0" arrivalPos="22.22" arrivalSpeed="9.47" duration="245.00" routeLength="1508.37" waitingTime="125.00" waitingCount="3" stopTime="0.00" timeLoss="165.05" rerouteNo="0" devices="tripinfo_49" vType="DEFAULT_VEHTYPE" speedFactor="1.14" vaporized=""/>
    <tripinfo id="78" depart="390.00" departLane="-368027038_0" departPos="5.10" departSpeed="0.00" departDelay="0.00" arrival="499.00" arrivalLane="-367762382#1_0" arrivalPos="12.00" arrivalSpeed="16.55" duration="109.00" routeLength="1226.77" waitingTime="0.00" waitingCount="0" stopTime="0.00" timeLoss="24.92" rerouteNo="0" devices="tripinfo_78" vType="DEFAULT_VEHTYPE" speedFactor="1.27" vaporized=""/>
    <tripinfo id="33" depart="165.00" departLane="-462987552#0_0" departPos="5.10" departSpeed="0.00" departDelay="0.00" arrival="500.00" arrivalLane="-368104071#3_0" arrivalPos="2.91" arrivalSpeed="6.25" duration="335.00" routeLength="2222.69" waitingTime="123.00" waitingCount="3" stopTime="0.00" timeLoss="156.17" rerouteNo="0" devices="tripinfo_33" vType="DEFAULT_VEHTYPE" speedFactor="0.82" vaporized=""/>
    <tripinfo id="65" depart="325.00" departLane="587800915#5_0" departPos="5.10" departSpeed="0.00" departDelay="0.00" arrival="505.00" arrivalLane="621949168#2_0" arrivalPos="12.17" arrivalSpeed="13.88" duration="180.00" routeLength="1878.47" waitingTime="67.00" waitingCount="1" stopTime="0.00" timeLoss="93.92" rerouteNo="0" devices="tripinfo_65" vType="DEFAULT_VEHTYPE" speedFactor="1.02" vaporized=""/>
    <tripinfo id="70" depart="350.00" departLane="-368104071#4_0" departPos="5.10" departSpeed="0.00" departDelay="0.00" arrival="508.00" arrivalLane="587800915#3_0" arrivalPos="57.55" arrivalSpeed="13.14" duration="158.00" routeLength="756.50" waitingTime="71.00" waitingCount="2" stopTime="0.00" timeLoss="92.01" rerouteNo="0" devices="tripinfo_70" vType="DEFAULT_VEHTYPE" speedFactor="1.00" vaporized=""/>
    <tripinfo id="95" depart="475.00" departLane="-888879165_0" departPos="3.06" departSpeed="0.00" departDelay="0.00" arrival="509.00" arrivalLane="586664247#0_0" arrivalPos="143.21" arrivalSpeed="24.44" duration="34.00" routeLength="298.33" waitingTime="6.00" waitingCount="1" stopTime="0.00" timeLoss="21.50" rerouteNo="0" devices="tripinfo_95" vType="DEFAULT_VEHTYPE" speedFactor="1.21" vaporized=""/>
    <tripinfo id="26" depart="130.00" departLane="34990515#2_0" departPos="5.10" departSpeed="0.00" departDelay="0.00" arrival="517.00" arrivalLane="33768805#2_0" arrivalPos="51.12" arrivalSpeed="13.68" duration="387.00" routeLength="2157.32" waitingTime="202.00" waitingCount="3" stopTime="0.00" timeLoss="241.21" rerouteNo="0" devices="tripinfo_26" vType="DEFAULT_VEHTYPE" speedFactor="1.06" vaporized=""/>
    <tripinfo id="45" depart="225.00" departLane="444826908#0_0" departPos="5.10" departSpeed="0.00" departDelay="0.00" arrival="517.00" arrivalLane="-795671604#1_0" arrivalPos="15.12" arrivalSpeed="11.72" duration="292.00" routeLength="1430.72" waitingTime="112.00" waitingCount="1" stopTime="0.00" timeLoss="148.09" rerouteNo="0" devices="tripinfo_45" vType="DEFAULT_VEHTYPE" speedFactor="0.89" vaporized=""/>
    <tripinfo id="44" depart="220.00" departLane="-337132072#10_0" departPos="5.10" departSpeed="0.00" departDelay="0.00" arrival="523.00" arrivalLane="341096510#1_0" arrivalPos="87.66" arrivalSpeed="15.36" duration="303.00" routeLength="2739.91" waitingTime="95.00" waitingCount="4" stopTime="0.00" timeLoss="159.67" rerouteNo="0" devices="tripinfo_44" vType="DEFAULT_VEHTYPE" speedFactor="1.15" vaporized=""/>
    <tripinfo id="48" depart="240.00" departLane="795671604#6_0" departPos="5.10" departSpeed="0.00" departDelay="0.00" arrival="524.00" arrivalLane="586664246#4_0" arrivalPos="44.26" arrivalSpeed="21.16" duration="284.00" routeLength="2019.81" waitingTime="112.00" waitingCount="2" stopTime="0.00" timeLoss="144.88" rerouteNo="0" devices="tripinfo_48" vType="DEFAULT_VEHTYPE" speedFactor="0.99" vaporized=""/>
    <tripinfo id="73" depart="365.00" departLane="-367700883#2_0" departPos="5.10" departSpeed="0.00" departDelay="0.00" arrival="531.00" arrivalLane="-459934830#0_0" arrivalPos="99.45" arrivalSpeed="13.05" duration="166.00" routeLength="1452.63" waitingTime="0.00" waitingCount="0" stopTime="0.00" timeLoss="28.08" rerouteNo="0" devices="tripinfo_73" vType="DEFAULT_VEHTYPE" speedFactor="0.94" vaporized=""/>
    <tripinfo id="47" depart="235.00" departLane="977815031_0" departPos="5.10" departSpeed="0.00" departDelay="0.00" arrival="535.00" arrivalLane="1324287528#1_0" arrivalPos="14.84" arrivalSpeed="14.32" duration="300.00" routeLength="1482.69" waitingTime="181.00" waitingCount="4" stopTime="0.00" timeLoss="233.23" rerouteNo="0" devices="tripinfo_47" vType="DEFAULT_VEHTYPE" speedFactor="1.07" vaporized=""/>
    <tripinfo id="57" depart="285.00" departLane="-444826908#0_0" departPos="5.10" departSpeed="0.00" departDelay="0.00" arrival="538.00" arrivalLane="34990514#4_0" arrivalPos="2.83" arrivalSpeed="6.48" duration="253.00" routeLength="1704.85" waitingTime="118.00" waitingCount="2" stopTime="0.00" timeLoss="148.96" rerouteNo="0" devices="tripinfo_57" vType="DEFAULT_VEHTYPE" speedFactor="0.90" vaporized=""/>
    <tripinfo id="86" depart="430.00" departLane="462987550_0" departPos="5.10" departSpeed="0.00" departDelay="0.00" arrival="559.00" arrivalLane="-359450383#0_0" arrivalPos="41.53" arrivalSpeed="26.28" duration="129.00" routeLength="1551.02" waitingTime="5.00" waitingCount="1" stopTime="0.00" timeLoss="41.79" rerouteNo="0" devices="tripinfo_86" vType="DEFAULT_VEHTYPE" speedFactor="1.22" vaporized=""/>
    <tripinfo id="64" depart="320.00" departLane="-444826919#1_0" departPos="5.10" departSpeed="0.00" departDelay="0.00" arrival="562.00" arrivalLane="-1222974661_0" arrivalPos="76.03" arrivalSpeed="18.45" duration="242.00" routeLength="2358.93" waitingTime="62.00" waitingCount="2" stopTime="0.00" timeLoss="102.27" rerouteNo="0" devices="tripinfo_64" vType="DEFAULT_VEHTYPE" speedFactor="0.98" vaporized=""/>
    <tripinfo id="67" depart="335.00" departLane="-1324287528#2_0" departPos="5.10" departSpeed="0.00" departDelay="0.00" arrival="565.00" arrivalLane="368104091#0_0" arrivalPos="39.58" arrivalSpeed="13.49" duration="230.00" routeLength="1442.98" waitingTime="91.00" waitingCount="2" stopTime="0.00" timeLoss="136.49" rerouteNo="0" devices="tripinfo_67" vType="DEFAULT_VEHTYPE" speedFactor="0.98" vaporized=""/>
    <tripinfo id="82" depart="410.00" departLane="-368096544#2_0" departPos="5.10" departSpeed="0.00" departDelay="0.00" arrival="567.00" arrivalLane="362871972#1_0" arrivalPos="132.11" arrivalSpeed="30.46" duration="157.00" routeLength="1327.19" waitingTime="58.00" waitingCount="2" stopTime="0.00" timeLoss="89.38" rerouteNo="0" devices="tripinfo_82" vType="DEFAULT_VEHTYPE" speedFactor="1.13" vaporized=""/>
    <tripinfo id="37" depart="185.00" departLane="620768869#4_0" departPos="5.10" departSpeed="0.00" departDelay="0.00" arrival="572.00" arrivalLane="1012133729_0" arrivalPos="120.62" arrivalSpeed="13.04" duration="387.00" routeLength="3745.20" waitingTime="103.00" waitingCount="3" stopTime="0.00" timeLoss="190.36" rerouteNo="0" devices="tripinfo_37" vType="DEFAULT_VEHTYPE" speedFactor="1.03" vaporized=""/>
    <tripinfo id="56" depart="280.00" departLane="620768869#3_0" departPos="5.10" departSpeed="0.00" departDelay="0.00" arrival="582.00" arrivalLane="587800915#2_0" arrivalPos="29.96" arrivalSpeed="11.54" duration="302.00" routeLength="2149.56" waitingTime="134.00" waitingCount="2" stopTime="0.00" timeLoss="168.68" rerouteNo="0" devices="tripinfo_56" vType="DEFAULT_VEHTYPE" speedFactor="0.91" vaporized=""/>
    <tripinfo id="85" depart="425.00" departLane="109505207#2_0" departPos="5.10" departSpeed="0.00" departDelay="0.00" arrival="586.00" arrivalLane="444811599#2_0" arrivalPos="0.78" arrivalSpeed="2.92" duration="161.00" routeLength="2048.48" waitingTime="6.00" waitingCount="1" stopTime="0.00" timeLoss="38.87" rerouteNo="0" devices="tripinfo_85" vType="DEFAULT_VEHTYPE" speedFactor="0.98" vaporized=""/>