<?xml version="1.0" encoding="UTF-8"?>

<!-- generated on 2025-10-06 23:35:17 by Eclipse SUMO sumo Version 1.24.0
<sumoConfiguration xmlns:xsi="http://www.w3.org/2001/XMLSchema-instance" xsi:noNamespaceSchemaLocation="http://sumo.dlr.de/xsd/sumoConfiguration.xsd">

    <input>
        <net-file value="./osm.net.xml.gz"/>
        <route-files value="./osm_pt.rou.xml,./osm.bus.trips.xml,./osm.motorcycle.trips.xml,./osm.passenger.trips.xml,./osm.truck.trips.xml"/>
        <additional-files value="./osm.poly.xml.gz,./osm_stops.add.xml,./output.add.xml"/>
    </input>

    <output>
        <tripinfo-output value="./tripinfos.xml"/>
        <stop-output value="./stopinfos.xml"/>
        <statistic-output value="./stats.xml"/>
    </output>

    <processing>
        <ignore-route-errors value="true"/>
        <time-to-teleport value="-1"/>
        <tls.actuated.jam-threshold value="30"/>
    </processing>

    <routing>
        <device.rerouting.adaptation-steps value="18"/>
        <device.rerouting.adaptation-interval value="10"/>
    </routing>

    <report>
        <verbose value="true"/>
        <duration-log.statistics value="true"/>
        <no-step-log value="true"/>
    </report>

    <traci_server>
        <remote-port value="57919"/>
    </traci_server>

    <gui_only>
        <gui-settings-file value="./osm.view.xml"/>
        <quit-on-end value="true"/>
    </gui_only>

</sumoConfiguration>
-->

<tripinfos xmlns:xsi="http://www.w3.org/2001/XMLSchema-instance" xsi:noNamespaceSchemaLocation="http://sumo.dlr.de/xsd/tripinfo_file.xsd">
    <tripinfo id="motorcycle15" depart="6.00" departLane="444476598_0" departPos="2.30" departSpeed="16.09" departDelay="0.70" arrival="15.00" arrivalLane="-116690596#1_0" arrivalPos="16.20" arrivalSpeed="9.92" duration="9.00" routeLength="90.52" waitingTime="0.00" waitingCount="0" stopTime="0.00" timeLoss="3.08" rerouteNo="0" devices="tripinfo_motorcycle15 routing_motorcycle15" vType="motorcycle_motorcycle" speedFactor="1.16" vaporized=""/>
    <tripinfo id="motorcycle27" depart="10.00" departLane="620766627_0" departPos="2.30" departSpeed="16.03" departDelay="0.46" arrival="28.00" arrivalLane="620764795_0" arrivalPos="88.68" arrivalSpeed="13.45" duration="18.00" routeLength="189.79" waitingTime="0.00" waitingCount="0" stopTime="0.00" timeLoss="4.95" rerouteNo="1" devices="tripinfo_motorcycle27 routing_motorcycle27" vType="motorcycle_motorcycle" speedFactor="1.15" vaporized=""/>
    <tripinfo id="motorcycle38" depart="14.00" departLane="-367194255#4_0" departPos="2.30" departSpeed="0.00" departDelay="0.57" arrival="47.00" arrivalLane="-367707574#1_0" arrivalPos="29.14" arrivalSpeed="12.35" duration="33.00" routeLength="392.08" waitingTime="0.00" waitingCount="0" stopTime="0.00" timeLoss="5.60" rerouteNo="1" devices="tripinfo_motorcycle38 routing_motorcycle38" vType="motorcycle_motorcycle" speedFactor="1.09" vaporized=""/>
    <tripinfo id="motorcycle74" depart="27.00" departLane="1117713207#0_0" departPos="0.20" departSpeed="0.00" departDelay="0.85" arrival="48.00" arrivalLane="555601518_0" arrivalPos="0.20" arrivalSpeed="3.86" duration="21.00" routeLength="222.27" waitingTime="2.00" waitingCount="1" stopTime="0.00" timeLoss="10.48" rerouteNo="1" devices="tripinfo_motorcycle74 routing_motorcycle74" vType="motorcycle_motorcycle" speedFactor="1.01" vaporized=""/>
    <tripinfo id="veh10" depart="8.00" departLane="620994315#0_0" departPos="5.10" departSpeed="0.00" departDelay="0.82" arrival="48.00" arrivalLane="-331675474_0" arrivalPos="57.21" arrivalSpeed="13.28" duration="40.00" routeLength="451.63" waitingTime="0.00" waitingCount="0" stopTime="0.00" timeLoss="6.19" rerouteNo="1" devices="tripinfo_veh10 routing_veh10" vType="veh_passenger" speedFactor="0.98" vaporized=""/>
    <tripinfo id="motorcycle114" depart="41.00" departLane="116690596#2_0" departPos="2.30" departSpeed="0.00" departDelay="0.72" arrival="49.00" arrivalLane="1304287973_0" arrivalPos="42.48" arrivalSpeed="21.13" duration="8.00" routeLength="117.69" waitingTime="0.00" waitingCount="0" stopTime="0.00" timeLoss="1.88" rerouteNo="0" devices="tripinfo_motorcycle114 routing_motorcycle114" vType="motorcycle_motorcycle" speedFactor="0.99" vaporized=""/>
    <tripinfo id="motorcycle7" depart="3.00" departLane="586657908#3_1" departPos="2.30" departSpeed="0.00" departDelay="0.53" arrival="50.00" arrivalLane="586657042#0_1" arrivalPos="201.20" arrivalSpeed="13.26" duration="47.00" routeLength="419.67" waitingTime="14.00" waitingCount="1" stopTime="0.00" timeLoss="20.74" rerouteNo="1" devices="tripinfo_motorcycle7 routing_motorcycle7" vType="motorcycle_motorcycle" speedFactor="1.03" vaporized=""/>
    <tripinfo id="motorcycle73" depart="26.00" departLane="109505204#0_0" departPos="0.20" departSpeed="0.00" departDelay="0.21" arrival="55.00" arrivalLane="34990516#0_0" arrivalPos="1.43" arrivalSpeed="6.44" duration="29.00" routeLength="355.82" waitingTime="0.00" waitingCount="0" stopTime="0.00" timeLoss="12.88" rerouteNo="1" devices="tripinfo_motorcycle73 routing_motorcycle73" vType="motorcycle_motorcycle" speedFactor="0.98" vaporized=""/>
    <tripinfo id="motorcycle132" depart="47.00" departLane="327075459#0_0" departPos="2.30" departSpeed="0.00" departDelay="0.36" arrival="58.00" arrivalLane="-620849594_0" arrivalPos="38.94" arrivalSpeed="14.35" duration="11.00" routeLength="112.85" waitingTime="0.00" waitingCount="0" stopTime="0.00" timeLoss="3.28" rerouteNo="1" devices="tripinfo_motorcycle132 routing_motorcycle132" vType="motorcycle_motorcycle" speedFactor="1.12" vaporized=""/>
    <tripinfo id="veh37" depart="27.00" departLane="586657908#1_0" departPos="5.10" departSpeed="0.00" departDelay="0.44" arrival="58.00" arrivalLane="586657908#3_0" arrivalPos="65.56" arrivalSpeed="17.63" duration="31.00" routeLength="322.74" waitingTime="1.00" waitingCount="1" stopTime="0.00" timeLoss="15.03" rerouteNo="1" devices="tripinfo_veh37 routing_veh37" vType="veh_passenger" speedFactor="0.93" vaporized=""/>
    <tripinfo id="motorcycle13" depart="5.00" departLane="615037323_0" departPos="0.20" departSpeed="0.00" departDelay="0.41" arrival="59.00" arrivalLane="-586659717_0" arrivalPos="88.97" arrivalSpeed="12.86" duration="54.00" routeLength="479.58" waitingTime="4.00" waitingCount="1" stopTime="0.00" timeLoss="16.00" rerouteNo="1" devices="tripinfo_motorcycle13 routing_motorcycle13" vType="motorcycle_motorcycle" speedFactor="0.94" vaporized=""/>
