<?xml version="1.0" encoding="UTF-8"?>

<!-- generated on 2025-10-06 21:33:46 by Eclipse SUMO sumo Version 1.24.0
<sumoConfiguration xmlns:xsi="http://www.w3.org/2001/XMLSchema-instance" xsi:noNamespaceSchemaLocation="http://sumo.dlr.de/xsd/sumoConfiguration.xsd">

    <input>
        <net-file value="./osm.net.xml.gz"/>
        <route-files value="./osm_pt.rou.xml,./osm.bus.trips.xml,./osm.motorcycle.trips.xml,./osm.passenger.trips.xml,./osm.truck.trips.xml"/>
        <additional-files value="./osm.poly.xml.gz,./osm_stops.add.xml,./output.add.xml"/>
    </input>

    <output>
        <tripinfo-output value="./tripinfos.xml"/>
        <stop-output value="./stopinfos.xml"/>
        <statistic-output value="./stats.xml"/>
    </output>

    <processing>
        <ignore-route-errors value="true"/>
        <time-to-teleport value="-1"/>
        <tls.actuated.jam-threshold value="30"/>
    </processing>

    <routing>
        <device.rerouting.adaptation-steps value="18"/>
        <device.rerouting.adaptation-interval value="10"/>
    </routing>

    <report>
        <verbose value="true"/>
        <duration-log.statistics value="true"/>
        <no-step-log value="true"/>
    </report>

    <traci_server>
        <remote-port value="51973"/>
    </traci_server>

    <gui_only>
        <gui-settings-file value="./osm.view.xml"/>
        <quit-on-end value="true"/>
    </gui_only>

</sumoConfiguration>
-->

<tripinfos xmlns:xsi="http://www.w3.org/2001/XMLSchema-instance" xsi:noNamespaceSchemaLocation="http://sumo.dlr.de/xsd/tripinfo_file.xsd">
    <tripinfo id="motorcycle15" depart="6.00" departLane="444476598_0" departPos="2.30" departSpeed="16.09" departDelay="0.70" arrival="15.00" arrivalLane="-116690596#1_0" arrivalPos="16.20" arrivalSpeed="9.92" duration="9.00" routeLength="90.52" waitingTime="0.00" waitingCount="0" stopTime="0.00" timeLoss="3.08" rerouteNo="0" devices="tripinfo_motorcycle15 routing_motorcycle15" vType="motorcycle_motorcycle" speedFactor="1.16" vaporized=""/>
    <tripinfo id="motorcycle27" depart="10.00" departLane="620766627_0" departPos="2.30" departSpeed="16.03" departDelay="0.46" arrival="28.00" arrivalLane="620764795_0" arrivalPos="88.68" arrivalSpeed="13.45" duration="18.00" routeLength="189.79" waitingTime="0.00" waitingCount="0" stopTime="0.00" timeLoss="4.95" rerouteNo="1" devices="tripinfo_motorcycle27 routing_motorcycle27" vType="motorcycle_motorcycle" speedFactor="1.15" vaporized=""/>
    <tripinfo id="motorcycle38" depart="14.00" departLane="-367194255#4_0" departPos="2.30" departSpeed="0.00" departDelay="0.57" arrival="47.00" arrivalLane="-367707574#1_0" arrivalPos="29.14" arrivalSpeed="12.59" duration="33.00" routeLength="392.08" waitingTime="0.00" waitingCount="0" stopTime="0.00" timeLoss="6.32" rerouteNo="1" devices="tripinfo_motorcycle38 routing_motorcycle38" vType="motorcycle_motorcycle" speedFactor="1.09" vaporized=""/>
    <tripinfo id="motorcycle74" depart="27.00" departLane="1117713207#0_0" departPos="0.20" departSpeed="0.00" departDelay="0.85" arrival="48.00" arrivalLane="555601518_0" arrivalPos="0.20" arrivalSpeed="4.07" duration="21.00" routeLength="222.27" waitingTime="2.00" waitingCount="1" stopTime="0.00" timeLoss="10.39" rerouteNo="1" devices="tripinfo_motorcycle74 routing_motorcycle74" vType="motorcycle_motorcycle" speedFactor="1.01" vaporized=""/>
    <tripinfo id="veh10" depart="8.00" departLane="620994315#0_0" departPos="5.10" departSpeed="0.00" departDelay="0.82" arrival="48.00" arrivalLane="-331675474_0" arrivalPos="57.21" arrivalSpeed="13.34" duration="40.00" routeLength="451.63" waitingTime="0.00" waitingCount="0" stopTime="0.00" timeLoss="6.02" rerouteNo="1" devices="tripinfo_veh10 routing_veh10" vType="veh_passenger" speedFactor="0.98" vaporized=""/>
    <tripinfo id="motorcycle114" depart="41.00" departLane="116690596#2_0" departPos="2.30" departSpeed="0.00" departDelay="0.72" arrival="49.00" arrivalLane="1304287973_0" arrivalPos="42.48" arrivalSpeed="21.48" duration="8.00" routeLength="117.69" waitingTime="0.00" waitingCount="0" stopTime="0.00" timeLoss="2.04" rerouteNo="0" devices="tripinfo_motorcycle114 routing_motorcycle114" vType="motorcycle_motorcycle" speedFactor="0.99" vaporized=""/>
    <tripinfo id="motorcycle7" depart="3.00" departLane="586657908#3_1" departPos="2.30" departSpeed="0.00" departDelay="0.53" arrival="50.00" arrivalLane="586657042#0_1" arrivalPos="201.20" arrivalSpeed="11.29" duration="47.00" routeLength="419.67" waitingTime="14.00" waitingCount="1" stopTime="0.00" timeLoss="20.83" rerouteNo="1" devices="tripinfo_motorcycle7 routing_motorcycle7" vType="motorcycle_motorcycle" speedFactor="1.03" vaporized=""/>
    <tripinfo id="motorcycle73" depart="26.00" departLane="109505204#0_0" departPos="0.20" departSpeed="0.00" departDelay="0.21" arrival="54.00" arrivalLane="34990516#0_0" arrivalPos="1.43" arrivalSpeed="4.25" duration="28.00" routeLength="355.82" waitingTime="0.00" waitingCount="0" stopTime="0.00" timeLoss="12.05" rerouteNo="1" devices="tripinfo_motorcycle73 routing_motorcycle73" vType="motorcycle_motorcycle" speedFactor="0.98" vaporized=""/>
    <tripinfo id="motorcycle13" depart="5.00" departLane="615037323_0" departPos="0.20" departSpeed="0.00" departDelay="0.41" arrival="58.00" arrivalLane="-586659717_0" arrivalPos="88.97" arrivalSpeed="12.15" duration="53.00" routeLength="479.58" waitingTime="4.00" waitingCount="1" stopTime="0.00" timeLoss="15.46" rerouteNo="1" devices="tripinfo_motorcycle13 routing_motorcycle13" vType="motorcycle_motorcycle" speedFactor="0.94" vaporized=""/>
    <tripinfo id="veh37" depart="27.00" departLane="586657908#1_0" departPos="5.10" departSpeed="0.00" departDelay="0.44" arrival="58.00" arrivalLane="586657908#3_0" arrivalPos="65.56" arrivalSpeed="17.01" duration="31.00" routeLength="322.74" waitingTime="1.00" waitingCount="1" stopTime="0.00" timeLoss="15.25" rerouteNo="1" devices="tripinfo_veh37 routing_veh37" vType="veh_passenger" speedFactor="0.93" vaporized=""/>
    <tripinfo id="motorcycle132" depart="47.00" departLane="327075459#0_0" departPos="2.30" departSpeed="0.00" departDelay="0.36" arrival="59.00" arrivalLane="-620849594_0" arrivalPos="38.94" arrivalSpeed="15.19" duration="12.00" routeLength="112.85" waitingTime="0.00" waitingCount="0" stopTime="0.00" timeLoss="3.47" rerouteNo="1" devices="tripinfo_motorcycle132 routing_motorcycle132" vType="motorcycle_motorcycle" speedFactor="1.12" vaporized=""/>
    <tripinfo id="motorcycle49" depart="18.00" departLane="-368286982_0" departPos="0.20" departSpeed="0.00" departDelay="0.69" arrival="63.00" arrivalLane="367762378_0" arrivalPos="21.20" arrivalSpeed="14.90" duration="45.00" routeLength="284.78" waitingTime="11.00" waitingCount="2" stopTime="0.00" timeLoss="25.04" rerouteNo="1" devices="tripinfo_motorcycle49 routing_motorcycle49" vType="motorcycle_motorcycle" speedFactor="1.10" vaporized=""/>
    <tripinfo id="motorcycle76" depart="27.00" departLane="-367707574#1_0" departPos="2.30" departSpeed="0.00" departDelay="0.15" arrival="70.00" arrivalLane="367762378_0" arrivalPos="21.20" arrivalSpeed="13.23" duration="43.00" routeLength="415.65" waitingTime="0.00" waitingCount="0" stopTime="0.00" timeLoss="12.26" rerouteNo="1" devices="tripinfo_motorcycle76 routing_motorcycle76" vType="motorcycle_motorcycle" speedFactor="1.03" vaporized=""/>
    <tripinfo id="motorcycle42" depart="15.00" departLane="586664246#2_0" departPos="2.30" departSpeed="0.00" departDelay="0.16" arrival="73.00" arrivalLane="628456652#1_0" arrivalPos="42.95" arrivalSpeed="13.32" duration="58.00" routeLength="500.95" waitingTime="15.00" waitingCount="1" stopTime="0.00" timeLoss="26.13" rerouteNo="1" devices="tripinfo_motorcycle42 routing_motorcycle42" vType="motorcycle_motorcycle" speedFactor="1.00" vaporized=""/>
    <tripinfo id="motorcycle102" depart="37.00" departLane="-462987552#1_0" departPos="2.30" departSpeed="0.00" departDelay="0.96" arrival="74.00" arrivalLane="-620768866#0_0" arrivalPos="44.78" arrivalSpeed="11.89" duration="37.00" routeLength="353.89" waitingTime="4.00" waitingCount="1" stopTime="0.00" timeLoss="11.25" rerouteNo="1" devices="tripinfo_motorcycle102 routing_motorcycle102" vType="motorcycle_motorcycle" speedFactor="1.01" vaporized=""/>
    <tripinfo id="motorcycle59" depart="21.00" departLane="-587793740_0" departPos="2.30" departSpeed="13.71" departDelay="0.15" arrival="75.00" arrivalLane="-977815033#1_0" arrivalPos="78.09" arrivalSpeed="11.81" duration="54.00" routeLength="626.38" waitingTime="0.00" waitingCount="0" stopTime="0.00" timeLoss="7.14" rerouteNo="1" devices="tripinfo_motorcycle59 routing_motorcycle59" vType="motorcycle_motorcycle" speedFactor="0.99" vaporized=""/>
    <tripinfo id="motorcycle123" depart="44.00" departLane="329817169_0" departPos="2.30" departSpeed="6.23" departDelay="0.54" arrival="75.00" arrivalLane="368209083_0" arrivalPos="28.59" arrivalSpeed="9.28" duration="31.00" routeLength="302.05" waitingTime="0.00" waitingCount="0" stopTime="0.00" timeLoss="7.52" rerouteNo="1" devices="tripinfo_motorcycle123 routing_motorcycle123" vType="motorcycle_motorcycle" speedFactor="0.82" vaporized=""/>
    <tripinfo id="motorcycle113" depart="40.00" departLane="-620862578#3_0" departPos="2.30" departSpeed="0.00" departDelay="0.08" arrival="79.00" arrivalLane="-620874944_0" arrivalPos="39.66" arrivalSpeed="13.83" duration="39.00" routeLength="321.17" waitingTime="0.00" waitingCount="0" stopTime="0.00" timeLoss="11.91" rerouteNo="1" devices="tripinfo_motorcycle113 routing_motorcycle113" vType="motorcycle_motorcycle" speedFactor="1.00" vaporized=""/>
    <tripinfo id="veh1" depart="1.00" departLane="586664247#0_1" departPos="5.10" departSpeed="0.00" departDelay="0.28" arrival="81.00" arrivalLane="-350146685#0_0" arrivalPos="87.94" arrivalSpeed="14.96" duration="80.00" routeLength="803.24" waitingTime="8.00" waitingCount="1" stopTime="0.00" timeLoss="30.14" rerouteNo="1" devices="tripinfo_veh1 routing_veh1" vType="veh_passenger" speedFactor="1.08" vaporized=""/>
    <tripinfo id="motorcycle55" depart="20.00" departLane="337540075_0" departPos="2.30" departSpeed="13.47" departDelay="0.57" arrival="82.00" arrivalLane="586657042#0_1" arrivalPos="201.20" arrivalSpeed="13.34" duration="62.00" routeLength="543.27" waitingTime="6.00" waitingCount="2" stopTime="0.00" timeLoss="23.33" rerouteNo="1" devices="tripinfo_motorcycle55 routing_motorcycle55" vType="motorcycle_motorcycle" speedFactor="0.97" vaporized=""/>
    <tripinfo id="motorcycle78" depart="28.00" departLane="615037319#0_1" departPos="2.30" departSpeed="0.00" departDelay="0.44" arrival="82.00" arrivalLane="586659413_0" arrivalPos="90.78" arrivalSpeed="12.21" duration="54.00" routeLength="452.72" waitingTime="9.00" waitingCount="1" stopTime="0.00" timeLoss="20.81" rerouteNo="1" devices="tripinfo_motorcycle78 routing_motorcycle78" vType="motorcycle_motorcycle" speedFactor="1.02" vaporized=""/>
    <tripinfo id="veh29" depart="21.00" departLane="103765643#1_0" departPos="5.10" departSpeed="0.00" departDelay="0.18" arrival="83.00" arrivalLane="-116690596#1_0" arrivalPos="16.20" arrivalSpeed="21.56" duration="62.00" routeLength="420.25" waitingTime="22.00" waitingCount="1" stopTime="0.00" timeLoss="35.18" rerouteNo="1" devices="tripinfo_veh29 routing_veh29" vType="veh_passenger" speedFactor="1.00" vaporized=""/>
    <tripinfo id="motorcycle35" depart="13.00" departLane="-586659718_0" departPos="2.30" departSpeed="0.00" departDelay="0.63" arrival="88.00" arrivalLane="-615037321_0" arrivalPos="0.20" arrivalSpeed="10.35" duration="75.00" routeLength="553.96" waitingTime="9.00" waitingCount="1" stopTime="0.00" timeLoss="29.34" rerouteNo="1" devices="tripinfo_motorcycle35 routing_motorcycle35" vType="motorcycle_motorcycle" speedFactor="0.90" vaporized=""/>
    <tripinfo id="motorcycle159" depart="57.00" departLane="337132049_0" departPos="2.30" departSpeed="15.65" departDelay="0.82" arrival="88.00" arrivalLane="-620768869#2_0" arrivalPos="27.06" arrivalSpeed="14.79" duration="31.00" routeLength="295.09" waitingTime="0.00" waitingCount="0" stopTime="0.00" timeLoss="10.70" rerouteNo="1" devices="tripinfo_motorcycle159 routing_motorcycle159" vType="motorcycle_motorcycle" speedFactor="1.13" vaporized=""/>
    <tripinfo id="motorcycle121" depart="43.00" departLane="-850677551#0_0" departPos="2.30" departSpeed="0.00" departDelay="0.25" arrival="90.00" arrivalLane="116690479#2_0" arrivalPos="3.17" arrivalSpeed="14.14" duration="47.00" routeLength="596.23" waitingTime="0.00" waitingCount="0" stopTime="0.00" timeLoss="8.88" rerouteNo="1" devices="tripinfo_motorcycle121 routing_motorcycle121" vType="motorcycle_motorcycle" speedFactor="1.15" vaporized=""/>
    <tripinfo id="veh47" depart="34.00" departLane="-226946949_0" departPos="5.10" departSpeed="10.91" departDelay="0.26" arrival="90.00" arrivalLane="1049377329_0" arrivalPos="61.13" arrivalSpeed="17.10" duration="56.00" routeLength="384.38" waitingTime="4.00" waitingCount="1" stopTime="0.00" timeLoss="28.24" rerouteNo="1" devices="tripinfo_veh47 routing_veh47" vType="veh_passenger" speedFactor="1.00" vaporized=""/>
    <tripinfo id="motorcycle108" depart="39.00" departLane="-336988370#1_0" departPos="2.30" departSpeed="0.00" departDelay="0.84" arrival="92.00" arrivalLane="-555600351#0_0" arrivalPos="9.14" arrivalSpeed="14.26" duration="53.00" routeLength="504.43" waitingTime="2.00" waitingCount="1" stopTime="0.00" timeLoss="15.93" rerouteNo="1" devices="tripinfo_motorcycle108 routing_motorcycle108" vType="motorcycle_motorcycle" speedFactor="1.10" vaporized=""/>
    <tripinfo id="motorcycle161" depart="57.00" departLane="-620768866#1_0" departPos="2.30" departSpeed="12.70" departDelay="0.12" arrival="92.00" arrivalLane="-337132049_0" arrivalPos="46.45" arrivalSpeed="11.29" duration="35.00" routeLength="248.96" waitingTime="7.00" waitingCount="1" stopTime="0.00" timeLoss="13.91" rerouteNo="1" devices="tripinfo_motorcycle161 routing_motorcycle161" vType="motorcycle_motorcycle" speedFactor="0.91" vaporized=""/>
    <tripinfo id="motorcycle195" depart="69.00" departLane="586664246#0_0" departPos="2.30" departSpeed="0.00" departDelay="0.10" arrival="95.00" arrivalLane="-555600351#0_0" arrivalPos="9.14" arrivalSpeed="8.83" duration="26.00" routeLength="238.31" waitingTime="0.00" waitingCount="0" stopTime="0.00" timeLoss="7.81" rerouteNo="1" devices="tripinfo_motorcycle195 routing_motorcycle195" vType="motorcycle_motorcycle" speedFactor="0.83" vaporized=""/>
    <tripinfo id="motorcycle24" depart="9.00" departLane="-850677551#1_0" departPos="2.30" departSpeed="0.00" departDelay="0.52" arrival="97.00" arrivalLane="-116690480#0_0" arrivalPos="2.00" arrivalSpeed="13.23" duration="88.00" routeLength="1191.76" waitingTime="0.00" waitingCount="0" stopTime="0.00" timeLoss="11.05" rerouteNo="1" devices="tripinfo_motorcycle24 routing_motorcycle24" vType="motorcycle_motorcycle" speedFactor="1.13" vaporized=""/>
    <tripinfo id="motorcycle136" depart="51.00" departLane="-1305093056_0" departPos="0.20" departSpeed="0.00" departDelay="2.95" arrival="98.00" arrivalLane="109505204#1_0" arrivalPos="0.20" arrivalSpeed="13.83" duration="47.00" routeLength="778.15" waitingTime="0.00" waitingCount="0" stopTime="0.00" timeLoss="19.86" rerouteNo="1" devices="tripinfo_motorcycle136 routing_motorcycle136" vType="motorcycle_motorcycle" speedFactor="1.11" vaporized=""/>
    <tripinfo id="veh74" depart="54.00" departLane="555600348#0_0" departPos="5.10" departSpeed="0.00" departDelay="0.88" arrival="98.00" arrivalLane="-336988370#1_0" arrivalPos="53.79" arrivalSpeed="10.91" duration="44.00" routeLength="386.06" waitingTime="0.00" waitingCount="0" stopTime="0.00" timeLoss="8.75" rerouteNo="1" devices="tripinfo_veh74 routing_veh74" vType="veh_passenger" speedFactor="0.84" vaporized=""/>
    <tripinfo id="motorcycle22" depart="9.00" departLane="-227019974#1_0" departPos="2.30" departSpeed="5.34" departDelay="1.23" arrival="99.00" arrivalLane="359450383#1_0" arrivalPos="69.71" arrivalSpeed="19.11" duration="90.00" routeLength="621.41" waitingTime="25.00" waitingCount="3" stopTime="0.00" timeLoss="46.86" rerouteNo="1" devices="tripinfo_motorcycle22 routing_motorcycle22" vType="motorcycle_motorcycle" speedFactor="0.92" vaporized=""/>
    <tripinfo id="motorcycle259" depart="92.00" departLane="-116690596#1_0" departPos="2.30" departSpeed="0.00" departDelay="0.49" arrival="99.00" arrivalLane="-329817169_0" arrivalPos="8.53" arrivalSpeed="10.17" duration="7.00" routeLength="37.35" waitingTime="0.00" waitingCount="0" stopTime="0.00" timeLoss="3.28" rerouteNo="0" devices="tripinfo_motorcycle259 routing_motorcycle259" vType="motorcycle_motorcycle" speedFactor="0.96" vaporized=""/>
    <tripinfo id="motorcycle199" depart="71.00" departLane="-462987552#1_0" departPos="2.30" departSpeed="0.00" departDelay="0.69" arrival="100.00" arrivalLane="-337132072#0_0" arrivalPos="23.30" arrivalSpeed="12.70" duration="29.00" routeLength="313.54" waitingTime="0.00" waitingCount="0" stopTime="0.00" timeLoss="6.65" rerouteNo="1" devices="tripinfo_motorcycle199 routing_motorcycle199" vType="motorcycle_motorcycle" speedFactor="1.11" vaporized=""/>
    <tripinfo id="veh50" depart="36.00" departLane="-368190050#0_0" departPos="5.10" departSpeed="0.00" departDelay="0.11" arrival="104.00" arrivalLane="367762382#2_0" arrivalPos="39.09" arrivalSpeed="13.61" duration="68.00" routeLength="775.43" waitingTime="0.00" waitingCount="0" stopTime="0.00" timeLoss="12.41" rerouteNo="1" devices="tripinfo_veh50 routing_veh50" vType="veh_passenger" speedFactor="1.02" vaporized=""/>
    <tripinfo id="motorcycle196" depart="70.00" departLane="-103759573_0" departPos="2.30" departSpeed="10.14" departDelay="0.75" arrival="106.00" arrivalLane="-444476598_0" arrivalPos="62.25" arrivalSpeed="13.11" duration="36.00" routeLength="405.19" waitingTime="0.00" waitingCount="0" stopTime="0.00" timeLoss="7.62" rerouteNo="1" devices="tripinfo_motorcycle196 routing_motorcycle196" vType="motorcycle_motorcycle" speedFactor="0.95" vaporized=""/>
    <tripinfo id="motorcycle11" depart="4.00" departLane="350146685#1_0" departPos="2.30" departSpeed="0.00" departDelay="0.11" arrival="109.00" arrivalLane="-323987231#0_0" arrivalPos="84.71" arrivalSpeed="12.29" duration="105.00" routeLength="965.75" waitingTime="15.00" waitingCount="1" stopTime="0.00" timeLoss="31.67" rerouteNo="1" devices="tripinfo_motorcycle11 routing_motorcycle11" vType="motorcycle_motorcycle" speedFactor="0.93" vaporized=""/>
    <tripinfo id="motorcycle298" depart="106.00" departLane="-620862578#6_0" departPos="0.34" departSpeed="0.00" departDelay="0.71" arrival="112.00" arrivalLane="-620862578#5_0" arrivalPos="24.95" arrivalSpeed="13.16" duration="6.00" routeLength="38.89" waitingTime="0.00" waitingCount="0" stopTime="0.00" timeLoss="1.80" rerouteNo="0" devices="tripinfo_motorcycle298 routing_motorcycle298" vType="motorcycle_motorcycle" speedFactor="0.98" vaporized=""/>
    <tripinfo id="motorcycle143" depart="52.00" departLane="-977815033#1_0" departPos="2.30" departSpeed="0.00" departDelay="1.48" arrival="113.00" arrivalLane="444826919#1_0" arrivalPos="88.50" arrivalSpeed="12.20" duration="61.00" routeLength="675.43" waitingTime="0.00" waitingCount="0" stopTime="0.00" timeLoss="10.52" rerouteNo="1" devices="tripinfo_motorcycle143 routing_motorcycle143" vType="motorcycle_motorcycle" speedFactor="1.00" vaporized=""/>
    <tripinfo id="motorcycle212" depart="75.00" departLane="-341456563_0" departPos="2.30" departSpeed="11.70" departDelay="0.10" arrival="113.00" arrivalLane="-620772305#1_0" arrivalPos="22.48" arrivalSpeed="8.54" duration="38.00" routeLength="110.92" waitingTime="18.00" waitingCount="1" stopTime="0.00" timeLoss="28.16" rerouteNo="1" devices="tripinfo_motorcycle212 routing_motorcycle212" vType="motorcycle_motorcycle" speedFactor="0.97" vaporized=""/>
    <tripinfo id="motorcycle134" depart="48.00" departLane="-109505207#4_0" departPos="2.30" departSpeed="0.00" departDelay="0.66" arrival="114.00" arrivalLane="898487483#0_0" arrivalPos="143.53" arrivalSpeed="20.45" duration="66.00" routeLength="663.12" waitingTime="12.00" waitingCount="1" stopTime="0.00" timeLoss="25.37" rerouteNo="1" devices="tripinfo_motorcycle134 routing_motorcycle134" vType="motorcycle_motorcycle" speedFactor="1.00" vaporized=""/>
    <tripinfo id="motorcycle37" depart="14.00" departLane="644261214_0" departPos="2.30" departSpeed="0.00" departDelay="0.93" arrival="115.00" arrivalLane="362871972#2_0" arrivalPos="224.61" arrivalSpeed="26.35" duration="101.00" routeLength="1306.81" waitingTime="20.00" waitingCount="2" stopTime="0.00" timeLoss="47.56" rerouteNo="1" devices="tripinfo_motorcycle37 routing_motorcycle37" vType="motorcycle_motorcycle" speedFactor="0.96" vaporized=""/>
    <tripinfo id="motorcycle90" depart="32.00" departLane="362714491_1" departPos="2.30" departSpeed="0.00" departDelay="0.20" arrival="116.00" arrivalLane="116690479#3_0" arrivalPos="102.12" arrivalSpeed="12.56" duration="84.00" routeLength="1135.63" waitingTime="0.00" waitingCount="0" stopTime="0.00" timeLoss="16.56" rerouteNo="1" devices="tripinfo_motorcycle90 routing_motorcycle90" vType="motorcycle_motorcycle" speedFactor="1.09" vaporized=""/>
    <tripinfo id="motorcycle197" depart="70.00" departLane="116690593#0_0" departPos="2.30" departSpeed="12.15" departDelay="0.40" arrival="117.00" arrivalLane="116690596#2_0" arrivalPos="60.37" arrivalSpeed="19.27" duration="47.00" routeLength="508.40" waitingTime="0.00" waitingCount="0" stopTime="0.00" timeLoss="11.80" rerouteNo="1" devices="tripinfo_motorcycle197 routing_motorcycle197" vType="motorcycle_motorcycle" speedFactor="0.87" vaporized=""/>
    <tripinfo id="veh40" depart="29.00" departLane="1324287528#1_0" departPos="5.10" departSpeed="0.00" departDelay="0.29" arrival="118.00" arrivalLane="587800918#0_0" arrivalPos="57.13" arrivalSpeed="12.95" duration="89.00" routeLength="999.43" waitingTime="0.00" waitingCount="0" stopTime="0.00" timeLoss="28.98" rerouteNo="1" devices="tripinfo_veh40 routing_veh40" vType="veh_passenger" speedFactor="1.13" vaporized=""/>
    <tripinfo id="motorcycle154" depart="55.00" departLane="-586659718_0" departPos="2.30" departSpeed="0.00" departDelay="0.59" arrival="121.00" arrivalLane="-555600865_0" arrivalPos="111.52" arrivalSpeed="6.80" duration="66.00" routeLength="500.38" waitingTime="7.00" waitingCount="2" stopTime="0.00" timeLoss="26.40" rerouteNo="1" devices="tripinfo_motorcycle154 routing_motorcycle154" vType="motorcycle_motorcycle" speedFactor="0.91" vaporized=""/>
    <tripinfo id="motorcycle193" depart="69.00" departLane="-337540063#0_0" departPos="2.30" departSpeed="0.00" departDelay="0.81" arrival="121.00" arrivalLane="-586659717_0" arrivalPos="88.97" arrivalSpeed="10.45" duration="52.00" routeLength="359.32" waitingTime="4.00" waitingCount="1" stopTime="0.00" timeLoss="19.34" rerouteNo="1" devices="tripinfo_motorcycle193 routing_motorcycle193" vType="motorcycle_motorcycle" speedFactor="0.87" vaporized=""/>
    <tripinfo id="motorcycle14" depart="5.00" departLane="1305093056_0" departPos="0.20" departSpeed="0.00" departDelay="0.05" arrival="122.00" arrivalLane="367762382#1_0" arrivalPos="11.47" arrivalSpeed="11.67" duration="117.00" routeLength="1298.04" waitingTime="6.00" waitingCount="1" stopTime="0.00" timeLoss="30.22" rerouteNo="1" devices="tripinfo_motorcycle14 routing_motorcycle14" vType="motorcycle_motorcycle" speedFactor="0.94" vaporized=""/>
    <tripinfo id="motorcycle125" depart="45.00" departLane="-620862578#6_0" departPos="0.34" departSpeed="14.01" departDelay="0.84" arrival="123.00" arrivalLane="341456563_0" arrivalPos="15.70" arrivalSpeed="11.67" duration="78.00" routeLength="552.76" waitingTime="23.00" waitingCount="1" stopTime="0.00" timeLoss="36.20" rerouteNo="1" devices="tripinfo_motorcycle125 routing_motorcycle125" vType="motorcycle_motorcycle" speedFactor="1.01" vaporized=""/>
    <tripinfo id="motorcycle244" depart="87.00" departLane="555600351#0_0" departPos="2.30" departSpeed="6.69" departDelay="0.79" arrival="123.00" arrivalLane="-109505207#1_0" arrivalPos="57.56" arrivalSpeed="15.51" duration="36.00" routeLength="408.10" waitingTime="0.00" waitingCount="0" stopTime="0.00" timeLoss="7.95" rerouteNo="1" devices="tripinfo_motorcycle244 routing_motorcycle244" vType="motorcycle_motorcycle" speedFactor="1.14" vaporized=""/>
    <tripinfo id="motorcycle162" depart="58.00" departLane="1309954088_1" departPos="2.30" departSpeed="16.74" departDelay="0.76" arrival="125.00" arrivalLane="103765643#0_0" arrivalPos="44.65" arrivalSpeed="11.46" duration="67.00" routeLength="113.71" waitingTime="54.00" waitingCount="1" stopTime="0.00" timeLoss="58.34" rerouteNo="1" devices="tripinfo_motorcycle162 routing_motorcycle162" vType="motorcycle_motorcycle" speedFactor="1.00" vaporized=""/>
    <tripinfo id="motorcycle85" depart="32.00" departLane="-621949168#5_0" departPos="2.30" departSpeed="0.00" departDelay="1.97" arrival="127.00" arrivalLane="341456563_0" arrivalPos="15.70" arrivalSpeed="12.41" duration="95.00" routeLength="532.61" waitingTime="28.00" waitingCount="2" stopTime="0.00" timeLoss="54.10" rerouteNo="1" devices="tripinfo_motorcycle85 routing_motorcycle85" vType="motorcycle_motorcycle" speedFactor="1.02" vaporized=""/>
    <tripinfo id="motorcycle342" depart="121.00" departLane="-620768869#4_0" departPos="2.30" departSpeed="0.00" departDelay="0.17" arrival="133.00" arrivalLane="620870374_0" arrivalPos="48.33" arrivalSpeed="14.38" duration="12.00" routeLength="120.19" waitingTime="0.00" waitingCount="0" stopTime="0.00" timeLoss="3.02" rerouteNo="0" devices="tripinfo_motorcycle342 routing_motorcycle342" vType="motorcycle_motorcycle" speedFactor="1.11" vaporized=""/>
    <tripinfo id="motorcycle358" depart="127.00" departLane="620869256_0" departPos="2.30" departSpeed="16.69" departDelay="0.51" arrival="133.00" arrivalLane="-620869256_0" arrivalPos="26.34" arrivalSpeed="15.03" duration="6.00" routeLength="55.05" waitingTime="0.00" waitingCount="0" stopTime="0.00" timeLoss="1.96" rerouteNo="0" devices="tripinfo_motorcycle358 routing_motorcycle358" vType="motorcycle_motorcycle" speedFactor="1.20" vaporized=""/>
    <tripinfo id="motorcycle133" depart="47.00" departLane="-586659413_0" departPos="2.30" departSpeed="14.10" departDelay="0.01" arrival="138.00" arrivalLane="109505208#4_0" arrivalPos="64.50" arrivalSpeed="13.55" duration="91.00" routeLength="770.13" waitingTime="12.00" waitingCount="3" stopTime="0.00" timeLoss="39.25" rerouteNo="1" devices="tripinfo_motorcycle133 routing_motorcycle133" vType="motorcycle_motorcycle" speedFactor="1.02" vaporized=""/>
    <tripinfo id="motorcycle272" depart="97.00" departLane="331675474_0" departPos="2.30" departSpeed="12.10" departDelay="0.90" arrival="138.00" arrivalLane="-462986979_0" arrivalPos="49.78" arrivalSpeed="11.23" duration="41.00" routeLength="373.28" waitingTime="0.00" waitingCount="0" stopTime="0.00" timeLoss="8.01" rerouteNo="1" devices="tripinfo_motorcycle272 routing_motorcycle272" vType="motorcycle_motorcycle" speedFactor="0.87" vaporized=""/>
    <tripinfo id="motorcycle283" depart="100.00" departLane="-367700934#0_0" departPos="2.30" departSpeed="0.00" departDelay="0.01" arrival="138.00" arrivalLane="795671604#3_0" arrivalPos="8.10" arrivalSpeed="11.26" duration="38.00" routeLength="256.11" waitingTime="0.00" waitingCount="0" stopTime="0.00" timeLoss="8.50" rerouteNo="1" devices="tripinfo_motorcycle283 routing_motorcycle283" vType="motorcycle_motorcycle" speedFactor="0.89" vaporized=""/>
    <tripinfo id="motorcycle202" depart="72.00" departLane="368096546#0_0" departPos="2.30" departSpeed="0.00" departDelay="0.63" arrival="140.00" arrivalLane="368190050#1_0" arrivalPos="4.11" arrivalSpeed="13.37" duration="68.00" routeLength="745.37" waitingTime="0.00" waitingCount="0" stopTime="0.00" timeLoss="11.81" rerouteNo="1" devices="tripinfo_motorcycle202 routing_motorcycle202" vType="motorcycle_motorcycle" speedFactor="1.00" vaporized=""/>
    <tripinfo id="motorcycle177" depart="63.00" departLane="615037320#1_0" departPos="2.30" departSpeed="0.00" departDelay="0.46" arrival="141.00" arrivalLane="-586664246#3_0" arrivalPos="24.18" arrivalSpeed="21.20" duration="78.00" routeLength="563.79" waitingTime="20.00" waitingCount="1" stopTime="0.00" timeLoss="40.85" rerouteNo="1" devices="tripinfo_motorcycle177 routing_motorcycle177" vType="motorcycle_motorcycle" speedFactor="1.03" vaporized=""/>
    <tripinfo id="motorcycle211" depart="75.00" departLane="-109505204#0_0" departPos="0.20" departSpeed="0.00" departDelay="0.45" arrival="143.00" arrivalLane="-109505207#0_0" arrivalPos="53.16" arrivalSpeed="7.42" duration="68.00" routeLength="601.24" waitingTime="4.00" waitingCount="2" stopTime="0.00" timeLoss="30.01" rerouteNo="1" devices="tripinfo_motorcycle211 routing_motorcycle211" vType="motorcycle_motorcycle" speedFactor="1.09" vaporized=""/>
    <tripinfo id="motorcycle127" depart="48.00" departLane="890146631_0" departPos="2.30" departSpeed="0.00" departDelay="3.13" arrival="144.00" arrivalLane="337540063#0_0" arrivalPos="47.48" arrivalSpeed="12.16" duration="96.00" routeLength="1033.44" waitingTime="27.00" waitingCount="2" stopTime="0.00" timeLoss="46.85" rerouteNo="1" devices="tripinfo_motorcycle127 routing_motorcycle127" vType="motorcycle_motorcycle" speedFactor="1.07" vaporized=""/>
    <tripinfo id="motorcycle222" depart="79.00" departLane="586664246#2_0" departPos="2.30" departSpeed="0.00" departDelay="0.56" arrival="144.00" arrivalLane="341096510#1_0" arrivalPos="87.67" arrivalSpeed="16.05" duration="65.00" routeLength="867.86" waitingTime="1.00" waitingCount="1" stopTime="0.00" timeLoss="14.67" rerouteNo="1" devices="tripinfo_motorcycle222 routing_motorcycle222" vType="motorcycle_motorcycle" speedFactor="1.24" vaporized=""/>