<?xml version="1.0" encoding="UTF-8"?>

<!-- generated on 2025-08-11 19:32:33 by Eclipse SUMO sumo Version 1.24.0
<sumoConfiguration xmlns:xsi="http://www.w3.org/2001/XMLSchema-instance" xsi:noNamespaceSchemaLocation="http://sumo.dlr.de/xsd/sumoConfiguration.xsd">

    <input>
        <net-file value="/home/sour/Sumo/2025-08-11-19-32-20/osm.net.xml.gz"/>
        <route-files value="/home/sour/Sumo/2025-08-11-19-32-20/trips.trips.xml"/>
        <additional-files value="/home/sour/Sumo/2025-08-11-19-32-20/osm_stops.add.xml"/>
    </input>

    <output>
        <vehroute-output value="/home/sour/Sumo/2025-08-11-19-32-20/vehroutes.xml"/>
        <stop-output value="/home/sour/Sumo/2025-08-11-19-32-20/stopinfos.xml"/>
    </output>

    <time>
        <begin value="0.0"/>
    </time>

    <processing>
        <ignore-route-errors value="true"/>
        <time-to-teleport.disconnected value="0"/>
    </processing>

    <routing>
        <device.rerouting.adaptation-interval value="0"/>
    </routing>

    <report>
        <aggregate-warnings value="5"/>
        <error-log value="/home/sour/Sumo/2025-08-11-19-32-20/trips.trips.xml.errorlog"/>
        <no-step-log value="true"/>
    </report>

</sumoConfiguration>
-->

<routes xmlns:xsi="http://www.w3.org/2001/XMLSchema-instance" xsi:noNamespaceSchemaLocation="http://sumo.dlr.de/xsd/routes_file.xsd">
    <vehicle id="0_bus_東海校園接駁車(平日):0" type="pt_bus" depart="383.00" departLane="0" arrival="420.00">
        <route edges="367762378"/>
        <stop busStop="3716494690" duration="30.00"/>
    </vehicle>

</routes>
