<?xml version="1.0" encoding="UTF-8"?>

<!-- generated on 2025-10-25 19:35:53 by Eclipse SUMO sumo Version 1.24.0
<sumoConfiguration xmlns:xsi="http://www.w3.org/2001/XMLSchema-instance" xsi:noNamespaceSchemaLocation="http://sumo.dlr.de/xsd/sumoConfiguration.xsd">

    <input>
        <net-file value="test_net.net.xml"/>
        <route-files value="test_route.rou.xml"/>
    </input>

    <output>
        <tripinfo-output value="tripinfo.xml"/>
    </output>

    <time>
        <begin value="0"/>
        <end value="1000"/>
    </time>

    <traci_server>
        <remote-port value="53999"/>
    </traci_server>

</sumoConfiguration>
-->

<tripinfos xmlns:xsi="http://www.w3.org/2001/XMLSchema-instance" xsi:noNamespaceSchemaLocation="http://sumo.dlr.de/xsd/tripinfo_file.xsd">
    <tripinfo id="2" depart="3.00" departLane="4to7_0" departPos="5.10" departSpeed="0.00" departDelay="1.00" arrival="19.00" arrivalLane="4to7_0" arrivalPos="192.80" arrivalSpeed="8.32" duration="16.00" routeLength="187.70" waitingTime="0.00" waitingCount="0" stopTime="0.00" timeLoss="12.58" rerouteNo="0" devices="tripinfo_2" vType="DEFAULT_VEHTYPE" speedFactor="1.01" vaporized=""/>
    <tripinfo id="13" depart="21.00" departLane="1to4_0" departPos="5.10" departSpeed="0.00" departDelay="8.00" arrival="35.00" arrivalLane="1to4_0" arrivalPos="192.80" arrivalSpeed="21.57" duration="14.00" routeLength="187.70" waitingTime="0.00" waitingCount="0" stopTime="0.00" timeLoss="10.48" rerouteNo="0" devices="tripinfo_13" vType="DEFAULT_VEHTYPE" speedFactor="1.12" vaporized=""/>
    <tripinfo id="3" depart="3.00" departLane="7to4_0" departPos="5.10" departSpeed="0.00" departDelay="0.00" arrival="46.00" arrivalLane="1to4_0" arrivalPos="192.80" arrivalSpeed="21.74" duration="43.00" routeLength="592.37" waitingTime="0.00" waitingCount="0" stopTime="0.00" timeLoss="30.57" rerouteNo="0" devices="tripinfo_3" vType="DEFAULT_VEHTYPE" speedFactor="1.08" vaporized=""/>
    <tripinfo id="34" depart="35.00" departLane="4to1_0" departPos="5.10" departSpeed="0.00" departDelay="1.00" arrival="52.00" arrivalLane="4to1_0" arrivalPos="192.80" arrivalSpeed="6.23" duration="17.00" routeLength="187.70" waitingTime="0.00" waitingCount="0" stopTime="0.00" timeLoss="13.58" rerouteNo="0" devices="tripinfo_34" vType="DEFAULT_VEHTYPE" speedFactor="0.99" vaporized=""/>
    <tripinfo id="7" depart="7.00" departLane="4to7_0" departPos="5.10" departSpeed="0.00" departDelay="0.00" arrival="53.00" arrivalLane="4to5_0" arrivalPos="192.80" arrivalSpeed="29.61" duration="46.00" routeLength="587.00" waitingTime="0.00" waitingCount="0" stopTime="0.00" timeLoss="32.61" rerouteNo="0" devices="tripinfo_7" vType="DEFAULT_VEHTYPE" speedFactor="0.89" vaporized=""/>
    <tripinfo id="12" depart="27.00" departLane="7to4_0" departPos="5.10" departSpeed="0.00" departDelay="15.00" arrival="60.00" arrivalLane="4to1_0" arrivalPos="192.80" arrivalSpeed="7.39" duration="33.00" routeLength="394.90" waitingTime="0.00" waitingCount="0" stopTime="0.00" timeLoss="25.79" rerouteNo="0" devices="tripinfo_12" vType="DEFAULT_VEHTYPE" speedFactor="1.05" vaporized=""/>
    <tripinfo id="5" depart="5.00" departLane="3to4_0" departPos="5.10" departSpeed="0.00" departDelay="0.00" arrival="65.00" arrivalLane="4to5_0" arrivalPos="192.80" arrivalSpeed="17.54" duration="60.00" routeLength="394.90" waitingTime="27.00" waitingCount="1" stopTime="0.00" timeLoss="52.63" rerouteNo="0" devices="tripinfo_5" vType="DEFAULT_VEHTYPE" speedFactor="0.83" vaporized=""/>
    <tripinfo id="8" depart="8.00" departLane="3to4_0" departPos="5.10" departSpeed="0.00" departDelay="0.00" arrival="66.00" arrivalLane="4to5_0" arrivalPos="192.80" arrivalSpeed="19.70" duration="58.00" routeLength="394.90" waitingTime="24.00" waitingCount="1" stopTime="0.00" timeLoss="50.86" rerouteNo="0" devices="tripinfo_8" vType="DEFAULT_VEHTYPE" speedFactor="0.94" vaporized=""/>
    <tripinfo id="32" depart="40.00" departLane="5to4_0" departPos="5.10" departSpeed="0.00" departDelay="8.00" arrival="69.00" arrivalLane="5to4_0" arrivalPos="192.80" arrivalSpeed="6.69" duration="29.00" routeLength="187.70" waitingTime="0.00" waitingCount="0" stopTime="0.00" timeLoss="25.59" rerouteNo="0" devices="tripinfo_32" vType="DEFAULT_VEHTYPE" speedFactor="1.01" vaporized=""/>
    <tripinfo id="10" depart="12.00" departLane="5to4_0" departPos="5.10" departSpeed="0.00" departDelay="2.00" arrival="70.00" arrivalLane="4to7_0" arrivalPos="192.80" arrivalSpeed="27.43" duration="58.00" routeLength="394.70" waitingTime="22.00" waitingCount="1" stopTime="0.00" timeLoss="49.00" rerouteNo="0" devices="tripinfo_10" vType="DEFAULT_VEHTYPE" speedFactor="1.09" vaporized=""/>
    <tripinfo id="15" depart="18.00" departLane="5to4_0" departPos="5.10" departSpeed="0.00" departDelay="3.00" arrival="74.00" arrivalLane="4to7_0" arrivalPos="192.80" arrivalSpeed="28.60" duration="56.00" routeLength="394.70" waitingTime="18.00" waitingCount="1" stopTime="0.00" timeLoss="46.83" rerouteNo="0" devices="tripinfo_15" vType="DEFAULT_VEHTYPE" speedFactor="0.93" vaporized=""/>
    <tripinfo id="46" depart="53.00" departLane="5to4_0" departPos="5.10" departSpeed="0.00" departDelay="7.00" arrival="84.00" arrivalLane="4to3_0" arrivalPos="192.80" arrivalSpeed="23.82" duration="31.00" routeLength="394.90" waitingTime="0.00" waitingCount="0" stopTime="0.00" timeLoss="23.77" rerouteNo="0" devices="tripinfo_46" vType="DEFAULT_VEHTYPE" speedFactor="1.00" vaporized=""/>
    <tripinfo id="31" depart="32.00" departLane="4to5_0" departPos="5.10" departSpeed="0.00" departDelay="1.00" arrival="85.00" arrivalLane="4to7_0" arrivalPos="192.80" arrivalSpeed="12.56" duration="53.00" routeLength="592.17" waitingTime="0.00" waitingCount="0" stopTime="0.00" timeLoss="40.02" rerouteNo="0" devices="tripinfo_31" vType="DEFAULT_VEHTYPE" speedFactor="1.15" vaporized=""/>
    <tripinfo id="6" depart="6.00" departLane="1to4_0" departPos="5.10" departSpeed="0.00" departDelay="0.00" arrival="88.00" arrivalLane="3to4_0" arrivalPos="192.80" arrivalSpeed="7.81" duration="82.00" routeLength="587.00" waitingTime="24.00" waitingCount="2" stopTime="0.00" timeLoss="69.79" rerouteNo="0" devices="tripinfo_6" vType="DEFAULT_VEHTYPE" speedFactor="1.05" vaporized=""/>
    <tripinfo id="40" depart="46.00" departLane="4to5_0" departPos="5.10" departSpeed="0.00" departDelay="6.00" arrival="90.00" arrivalLane="4to1_0" arrivalPos="192.80" arrivalSpeed="29.48" duration="44.00" routeLength="587.00" waitingTime="0.00" waitingCount="0" stopTime="0.00" timeLoss="31.61" rerouteNo="0" devices="tripinfo_40" vType="DEFAULT_VEHTYPE" speedFactor="1.03" vaporized=""/>
    <tripinfo id="1" depart="1.00" departLane="4to1_0" departPos="5.10" departSpeed="0.00" departDelay="0.00" arrival="92.00" arrivalLane="3to4_0" arrivalPos="192.80" arrivalSpeed="11.63" duration="91.00" routeLength="784.47" waitingTime="18.00" waitingCount="1" stopTime="0.00" timeLoss="74.34" rerouteNo="0" devices="tripinfo_1" vType="DEFAULT_VEHTYPE" speedFactor="0.94" vaporized=""/>
    <tripinfo id="11" depart="11.00" departLane="4to1_0" departPos="5.10" departSpeed="0.00" departDelay="0.00" arrival="95.00" arrivalLane="3to4_0" arrivalPos="192.80" arrivalSpeed="13.05" duration="84.00" routeLength="784.47" waitingTime="13.00" waitingCount="1" stopTime="0.00" timeLoss="66.84" rerouteNo="0" devices="tripinfo_11" vType="DEFAULT_VEHTYPE" speedFactor="1.03" vaporized=""/>
    <tripinfo id="42" depart="50.00" departLane="4to3_0" departPos="5.10" departSpeed="0.00" departDelay="8.00" arrival="97.00" arrivalLane="3to4_0" arrivalPos="192.80" arrivalSpeed="16.42" duration="47.00" routeLength="385.17" waitingTime="8.00" waitingCount="1" stopTime="0.00" timeLoss="38.32" rerouteNo="0" devices="tripinfo_42" vType="DEFAULT_VEHTYPE" speedFactor="1.09" vaporized=""/>
    <tripinfo id="21" depart="23.00" departLane="3to4_0" departPos="5.10" departSpeed="0.00" departDelay="2.00" arrival="98.00" arrivalLane="4to1_0" arrivalPos="192.80" arrivalSpeed="8.16" duration="75.00" routeLength="394.70" waitingTime="33.00" waitingCount="2" stopTime="0.00" timeLoss="66.33" rerouteNo="0" devices="tripinfo_21" vType="DEFAULT_VEHTYPE" speedFactor="1.01" vaporized=""/>
    <tripinfo id="28" depart="28.00" departLane="3to4_0" departPos="5.10" departSpeed="0.00" departDelay="0.00" arrival="98.00" arrivalLane="4to7_0" arrivalPos="192.80" arrivalSpeed="29.82" duration="70.00" routeLength="389.53" waitingTime="29.00" waitingCount="2" stopTime="0.00" timeLoss="61.06" rerouteNo="0" devices="tripinfo_28" vType="DEFAULT_VEHTYPE" speedFactor="1.13" vaporized=""/>
    <tripinfo id="17" depart="24.00" departLane="4to3_0" departPos="5.10" departSpeed="0.00" departDelay="7.00" arrival="100.00" arrivalLane="4to5_0" arrivalPos="192.80" arrivalSpeed="28.08" duration="76.00" routeLength="592.37" waitingTime="19.00" waitingCount="2" stopTime="0.00" timeLoss="64.40" rerouteNo="0" devices="tripinfo_17" vType="DEFAULT_VEHTYPE" speedFactor="0.94" vaporized=""/>
    <tripinfo id="14" depart="15.00" departLane="5to4_0" departPos="5.10" departSpeed="0.00" departDelay="1.00" arrival="109.00" arrivalLane="4to5_0" arrivalPos="192.80" arrivalSpeed="24.02" duration="94.00" routeLength="799.57" waitingTime="22.00" waitingCount="2" stopTime="0.00" timeLoss="78.79" rerouteNo="0" devices="tripinfo_14" vType="DEFAULT_VEHTYPE" speedFactor="0.99" vaporized=""/>
    <tripinfo id="18" depart="21.00" departLane="5to4_0" departPos="5.10" departSpeed="0.00" departDelay="3.00" arrival="111.00" arrivalLane="4to5_0" arrivalPos="192.80" arrivalSpeed="25.65" duration="90.00" routeLength="799.57" waitingTime="16.00" waitingCount="1" stopTime="0.00" timeLoss="74.42" rerouteNo="0" devices="tripinfo_18" vType="DEFAULT_VEHTYPE" speedFactor="0.94" vaporized=""/>
    <tripinfo id="19" depart="24.00" departLane="5to4_0" departPos="5.10" departSpeed="0.00" departDelay="5.00" arrival="112.00" arrivalLane="4to5_0" arrivalPos="192.80" arrivalSpeed="25.74" duration="88.00" routeLength="799.57" waitingTime="13.00" waitingCount="1" stopTime="0.00" timeLoss="71.85" rerouteNo="0" devices="tripinfo_19" vType="DEFAULT_VEHTYPE" speedFactor="1.16" vaporized=""/>
    <tripinfo id="0" depart="0.00" departLane="4to7_0" departPos="5.10" departSpeed="0.00" departDelay="0.00" arrival="124.00" arrivalLane="1to4_0" arrivalPos="192.80" arrivalSpeed="7.44" duration="124.00" routeLength="789.84" waitingTime="57.00" waitingCount="1" stopTime="0.00" timeLoss="106.76" rerouteNo="0" devices="tripinfo_0" vType="DEFAULT_VEHTYPE" speedFactor="1.06" vaporized=""/>
    <tripinfo id="9" depart="9.00" departLane="5to4_0" departPos="5.10" departSpeed="0.00" departDelay="0.00" arrival="136.00" arrivalLane="1to4_0" arrivalPos="192.80" arrivalSpeed="9.75" duration="127.00" routeLength="587.00" waitingTime="66.00" waitingCount="2" stopTime="0.00" timeLoss="114.04" rerouteNo="0" devices="tripinfo_9" vType="DEFAULT_VEHTYPE" speedFactor="0.86" vaporized=""/>
    <tripinfo id="24" depart="24.00" departLane="4to7_0" departPos="5.10" departSpeed="0.00" departDelay="0.00" arrival="137.00" arrivalLane="4to1_0" arrivalPos="192.80" arrivalSpeed="6.59" duration="113.00" routeLength="592.37" waitingTime="60.00" waitingCount="1" stopTime="0.00" timeLoss="100.74" rerouteNo="0" devices="tripinfo_24" vType="DEFAULT_VEHTYPE" speedFactor="0.83" vaporized=""/>
    <tripinfo id="27" depart="27.00" departLane="4to7_0" departPos="5.10" departSpeed="0.00" departDelay="0.00" arrival="137.00" arrivalLane="4to5_0" arrivalPos="192.80" arrivalSpeed="26.30" duration="110.00" routeLength="587.00" waitingTime="57.00" waitingCount="1" stopTime="0.00" timeLoss="97.13" rerouteNo="0" devices="tripinfo_27" vType="DEFAULT_VEHTYPE" speedFactor="0.95" vaporized=""/>
    <tripinfo id="44" depart="72.00" departLane="1to4_0" departPos="5.10" departSpeed="0.00" departDelay="28.00" arrival="138.00" arrivalLane="1to4_0" arrivalPos="192.80" arrivalSpeed="10.65" duration="66.00" routeLength="187.70" waitingTime="40.00" waitingCount="1" stopTime="0.00" timeLoss="62.54" rerouteNo="0" devices="tripinfo_44" vType="DEFAULT_VEHTYPE" speedFactor="1.04" vaporized=""/>
    <tripinfo id="4" depart="4.00" departLane="4to3_0" departPos="5.10" departSpeed="0.00" departDelay="0.00" arrival="144.00" arrivalLane="1to4_0" arrivalPos="192.80" arrivalSpeed="8.36" duration="140.00" routeLength="789.64" waitingTime="56.00" waitingCount="3" stopTime="0.00" timeLoss="122.59" rerouteNo="0" devices="tripinfo_4" vType="DEFAULT_VEHTYPE" speedFactor="1.03" vaporized=""/>
    <tripinfo id="33" depart="84.00" departLane="3to4_0" departPos="5.10" departSpeed="0.00" departDelay="51.00" arrival="146.00" arrivalLane="1to4_0" arrivalPos="192.80" arrivalSpeed="11.00" duration="62.00" routeLength="592.17" waitingTime="0.00" waitingCount="0" stopTime="0.00" timeLoss="48.97" rerouteNo="0" devices="tripinfo_33" vType="DEFAULT_VEHTYPE" speedFactor="1.17" vaporized=""/>
    <tripinfo id="20" depart="21.00" departLane="4to7_0" departPos="5.10" departSpeed="0.00" departDelay="1.00" arrival="149.00" arrivalLane="1to4_0" arrivalPos="192.80" arrivalSpeed="27.41" duration="128.00" routeLength="789.84" waitingTime="64.00" waitingCount="1" stopTime="0.00" timeLoss="111.81" rerouteNo="0" devices="tripinfo_20" vType="DEFAULT_VEHTYPE" speedFactor="1.02" vaporized=""/>
    <tripinfo id="22" depart="35.00" departLane="1to4_0" departPos="5.10" departSpeed="0.00" departDelay="13.00" arrival="149.00" arrivalLane="3to4_0" arrivalPos="192.80" arrivalSpeed="28.34" duration="114.00" routeLength="587.00" waitingTime="66.00" waitingCount="1" stopTime="0.00" timeLoss="100.69" rerouteNo="0" devices="tripinfo_22" vType="DEFAULT_VEHTYPE" speedFactor="0.97" vaporized=""/>
    <tripinfo id="30" depart="30.00" departLane="7to4_0" departPos="5.10" departSpeed="0.00" departDelay="0.00" arrival="150.00" arrivalLane="4to7_0" arrivalPos="192.80" arrivalSpeed="5.48" duration="120.00" routeLength="799.57" waitingTime="44.00" waitingCount="1" stopTime="0.00" timeLoss="104.79" rerouteNo="0" devices="tripinfo_30" vType="DEFAULT_VEHTYPE" speedFactor="1.18" vaporized=""/>
    <tripinfo id="45" depart="75.00" departLane="1to4_0" departPos="5.10" departSpeed="0.00" departDelay="30.00" arrival="152.00" arrivalLane="4to7_0" arrivalPos="192.80" arrivalSpeed="16.61" duration="77.00" routeLength="394.90" waitingTime="37.00" waitingCount="1" stopTime="0.00" timeLoss="69.70" rerouteNo="0" devices="tripinfo_45" vType="DEFAULT_VEHTYPE" speedFactor="1.09" vaporized=""/>
    <tripinfo id="25" depart="25.00" departLane="4to1_0" departPos="5.10" departSpeed="0.00" departDelay="0.00" arrival="153.00" arrivalLane="3to4_0" arrivalPos="192.80" arrivalSpeed="28.65" duration="128.00" routeLength="784.47" waitingTime="61.00" waitingCount="1" stopTime="0.00" timeLoss="111.07" rerouteNo="0" devices="tripinfo_25" vType="DEFAULT_VEHTYPE" speedFactor="0.87" vaporized=""/>
    <tripinfo id="47" depart="78.00" departLane="1to4_0" departPos="5.10" departSpeed="0.00" departDelay="31.00" arrival="155.00" arrivalLane="4to3_0" arrivalPos="192.80" arrivalSpeed="28.20" duration="77.00" routeLength="389.53" waitingTime="37.00" waitingCount="1" stopTime="0.00" timeLoss="68.30" rerouteNo="0" devices="tripinfo_47" vType="DEFAULT_VEHTYPE" speedFactor="0.90" vaporized=""/>
    <tripinfo id="37" depart="37.00" departLane="4to7_0" departPos="5.10" departSpeed="0.00" departDelay="0.00" arrival="159.00" arrivalLane="4to3_0" arrivalPos="192.80" arrivalSpeed="29.45" duration="122.00" routeLength="592.17" waitingTime="66.00" waitingCount="2" stopTime="0.00" timeLoss="108.67" rerouteNo="0" devices="tripinfo_37" vType="DEFAULT_VEHTYPE" speedFactor="1.18" vaporized=""/>
    <tripinfo id="39" depart="40.00" departLane="4to1_0" departPos="5.10" departSpeed="0.00" departDelay="1.00" arrival="159.00" arrivalLane="3to4_0" arrivalPos="192.80" arrivalSpeed="29.50" duration="119.00" routeLength="784.47" waitingTime="50.00" waitingCount="1" stopTime="0.00" timeLoss="101.20" rerouteNo="0" devices="tripinfo_39" vType="DEFAULT_VEHTYPE" speedFactor="0.90" vaporized=""/>
    <tripinfo id="36" depart="56.00" departLane="7to4_0" departPos="5.10" departSpeed="0.00" departDelay="20.00" arrival="160.00" arrivalLane="4to1_0" arrivalPos="192.80" arrivalSpeed="29.75" duration="104.00" routeLength="394.90" waitingTime="62.00" waitingCount="2" stopTime="0.00" timeLoss="96.62" rerouteNo="0" devices="tripinfo_36" vType="DEFAULT_VEHTYPE" speedFactor="0.97" vaporized=""/>
    <tripinfo id="16" depart="21.00" departLane="4to5_0" departPos="5.10" departSpeed="0.00" departDelay="5.00" arrival="161.00" arrivalLane="7to4_0" arrivalPos="192.80" arrivalSpeed="8.69" duration="140.00" routeLength="789.64" waitingTime="46.00" waitingCount="3" stopTime="0.00" timeLoss="121.85" rerouteNo="0" devices="tripinfo_16" vType="DEFAULT_VEHTYPE" speedFactor="0.88" vaporized=""/>
    <tripinfo id="38" depart="59.00" departLane="7to4_0" departPos="5.10" departSpeed="0.00" departDelay="21.00" arrival="163.00" arrivalLane="4to3_0" arrivalPos="192.80" arrivalSpeed="27.92" duration="104.00" routeLength="394.70" waitingTime="60.00" waitingCount="2" stopTime="0.00" timeLoss="95.56" rerouteNo="0" devices="tripinfo_38" vType="DEFAULT_VEHTYPE" speedFactor="1.10" vaporized=""/>
    <tripinfo id="41" depart="56.00" departLane="4to5_0" departPos="5.10" departSpeed="0.00" departDelay="15.00" arrival="163.00" arrivalLane="7to4_0" arrivalPos="192.80" arrivalSpeed="10.23" duration="107.00" routeLength="789.64" waitingTime="26.00" waitingCount="2" stopTime="0.00" timeLoss="88.65" rerouteNo="0" devices="tripinfo_41" vType="DEFAULT_VEHTYPE" speedFactor="0.96" vaporized=""/>
    <tripinfo id="35" depart="87.00" departLane="3to4_0" departPos="5.10" departSpeed="0.00" departDelay="52.00" arrival="165.00" arrivalLane="7to4_0" arrivalPos="192.80" arrivalSpeed="11.11" duration="78.00" routeLength="587.00" waitingTime="10.00" waitingCount="1" stopTime="0.00" timeLoss="65.12" rerouteNo="0" devices="tripinfo_35" vType="DEFAULT_VEHTYPE" speedFactor="1.02" vaporized=""/>
    <tripinfo id="43" depart="62.00" departLane="7to4_0" departPos="5.10" departSpeed="0.00" departDelay="19.00" arrival="165.00" arrivalLane="4to5_0" arrivalPos="192.80" arrivalSpeed="27.94" duration="103.00" routeLength="389.53" waitingTime="58.00" waitingCount="2" stopTime="0.00" timeLoss="95.23" rerouteNo="0" devices="tripinfo_43" vType="DEFAULT_VEHTYPE" speedFactor="1.04" vaporized=""/>
    <tripinfo id="26" depart="32.00" departLane="4to1_0" departPos="5.10" departSpeed="0.00" departDelay="6.00" arrival="167.00" arrivalLane="7to4_0" arrivalPos="192.80" arrivalSpeed="12.29" duration="135.00" routeLength="789.84" waitingTime="54.00" waitingCount="1" stopTime="0.00" timeLoss="118.52" rerouteNo="0" devices="tripinfo_26" vType="DEFAULT_VEHTYPE" speedFactor="0.92" vaporized=""/>
    <tripinfo id="48" depart="65.00" departLane="7to4_0" departPos="5.10" departSpeed="0.00" departDelay="17.00" arrival="169.00" arrivalLane="4to5_0" arrivalPos="192.80" arrivalSpeed="28.50" duration="104.00" routeLength="389.53" waitingTime="56.00" waitingCount="2" stopTime="0.00" timeLoss="94.89" rerouteNo="0" devices="tripinfo_48" vType="DEFAULT_VEHTYPE" speedFactor="0.88" vaporized=""/>
    <tripinfo id="29" depart="52.00" departLane="3to4_0" departPos="5.10" departSpeed="0.00" departDelay="23.00" arrival="181.00" arrivalLane="4to3_0" arrivalPos="192.80" arrivalSpeed="26.81" duration="129.00" routeLength="799.57" waitingTime="61.00" waitingCount="2" stopTime="0.00" timeLoss="113.77" rerouteNo="0" devices="tripinfo_29" vType="DEFAULT_VEHTYPE" speedFactor="0.93" vaporized=""/>
    <tripinfo id="49" depart="70.00" departLane="7to4_0" departPos="5.10" departSpeed="0.00" departDelay="21.00" arrival="189.00" arrivalLane="5to4_0" arrivalPos="192.80" arrivalSpeed="27.10" duration="119.00" routeLength="587.00" waitingTime="54.00" waitingCount="2" stopTime="0.00" timeLoss="105.62" rerouteNo="0" devices="tripinfo_49" vType="DEFAULT_VEHTYPE" speedFactor="0.85" vaporized=""/>
    <tripinfo id="23" depart="60.00" departLane="1to4_0" departPos="5.10" departSpeed="0.00" departDelay="37.00" arrival="250.00" arrivalLane="4to1_0" arrivalPos="192.80" arrivalSpeed="28.17" duration="190.00" routeLength="799.57" waitingTime="113.00" waitingCount="2" stopTime="0.00" timeLoss="174.06" rerouteNo="0" devices="tripinfo_23" vType="DEFAULT_VEHTYPE" speedFactor="0.89" vaporized=""/>
</tripinfos>
