<?xml version="1.0" encoding="UTF-8"?>

<!-- generated on 2025-08-02 21:50:53 by Eclipse SUMO sumo Version 1.22.0
<sumoConfiguration xmlns:xsi="http://www.w3.org/2001/XMLSchema-instance" xsi:noNamespaceSchemaLocation="http://sumo.dlr.de/xsd/sumoConfiguration.xsd">

    <input>
        <net-file value="test_net.net.xml"/>
        <route-files value="test_route.rou.xml"/>
    </input>

    <output>
        <tripinfo-output value="tripinfo.xml"/>
    </output>

    <time>
        <begin value="0"/>
        <end value="1000"/>
    </time>

    <traci_server>
        <remote-port value="61068"/>
    </traci_server>

</sumoConfiguration>
-->

<tripinfos xmlns:xsi="http://www.w3.org/2001/XMLSchema-instance" xsi:noNamespaceSchemaLocation="http://sumo.dlr.de/xsd/tripinfo_file.xsd">
    <tripinfo id="2" depart="3.00" departLane="4to7_0" departPos="5.10" departSpeed="0.00" departDelay="1.00" arrival="19.00" arrivalLane="4to7_0" arrivalPos="192.80" arrivalSpeed="8.32" duration="16.00" routeLength="187.70" waitingTime="0.00" waitingCount="0" stopTime="0.00" timeLoss="12.58" rerouteNo="0" devices="tripinfo_2" vType="DEFAULT_VEHTYPE" speedFactor="1.01" vaporized=""/>
    <tripinfo id="13" depart="21.00" departLane="1to4_0" departPos="5.10" departSpeed="0.00" departDelay="8.00" arrival="35.00" arrivalLane="1to4_0" arrivalPos="192.80" arrivalSpeed="21.57" duration="14.00" routeLength="187.70" waitingTime="0.00" waitingCount="0" stopTime="0.00" timeLoss="10.48" rerouteNo="0" devices="tripinfo_13" vType="DEFAULT_VEHTYPE" speedFactor="1.12" vaporized=""/>
    <tripinfo id="3" depart="3.00" departLane="7to4_0" departPos="5.10" departSpeed="0.00" departDelay="0.00" arrival="46.00" arrivalLane="1to4_0" arrivalPos="192.80" arrivalSpeed="21.72" duration="43.00" routeLength="592.37" waitingTime="0.00" waitingCount="0" stopTime="0.00" timeLoss="30.56" rerouteNo="0" devices="tripinfo_3" vType="DEFAULT_VEHTYPE" speedFactor="1.08" vaporized=""/>
    <tripinfo id="34" depart="35.00" departLane="4to1_0" departPos="5.10" departSpeed="0.00" departDelay="1.00" arrival="52.00" arrivalLane="4to1_0" arrivalPos="192.80" arrivalSpeed="6.99" duration="17.00" routeLength="187.70" waitingTime="0.00" waitingCount="0" stopTime="0.00" timeLoss="13.58" rerouteNo="0" devices="tripinfo_34" vType="DEFAULT_VEHTYPE" speedFactor="0.99" vaporized=""/>
    <tripinfo id="7" depart="7.00" departLane="4to7_0" departPos="5.10" departSpeed="0.00" departDelay="0.00" arrival="53.00" arrivalLane="4to5_0" arrivalPos="192.80" arrivalSpeed="29.30" duration="46.00" routeLength="587.00" waitingTime="0.00" waitingCount="0" stopTime="0.00" timeLoss="32.69" rerouteNo="0" devices="tripinfo_7" vType="DEFAULT_VEHTYPE" speedFactor="0.89" vaporized=""/>
    <tripinfo id="5" depart="5.00" departLane="3to4_0" departPos="5.10" departSpeed="0.00" departDelay="0.00" arrival="63.00" arrivalLane="4to5_0" arrivalPos="192.80" arrivalSpeed="15.69" duration="58.00" routeLength="394.90" waitingTime="24.00" waitingCount="1" stopTime="0.00" timeLoss="50.66" rerouteNo="0" devices="tripinfo_5" vType="DEFAULT_VEHTYPE" speedFactor="0.83" vaporized=""/>
    <tripinfo id="8" depart="8.00" departLane="3to4_0" departPos="5.10" departSpeed="0.00" departDelay="0.00" arrival="64.00" arrivalLane="4to5_0" arrivalPos="192.80" arrivalSpeed="15.50" duration="56.00" routeLength="394.90" waitingTime="21.00" waitingCount="1" stopTime="0.00" timeLoss="48.84" rerouteNo="0" devices="tripinfo_8" vType="DEFAULT_VEHTYPE" speedFactor="0.94" vaporized=""/>
    <tripinfo id="10" depart="12.00" departLane="5to4_0" departPos="5.10" departSpeed="0.00" departDelay="2.00" arrival="67.00" arrivalLane="4to7_0" arrivalPos="192.80" arrivalSpeed="27.48" duration="55.00" routeLength="394.70" waitingTime="19.00" waitingCount="1" stopTime="0.00" timeLoss="46.09" rerouteNo="0" devices="tripinfo_10" vType="DEFAULT_VEHTYPE" speedFactor="1.09" vaporized=""/>
    <tripinfo id="32" depart="40.00" departLane="5to4_0" departPos="5.10" departSpeed="0.00" departDelay="8.00" arrival="67.00" arrivalLane="5to4_0" arrivalPos="192.80" arrivalSpeed="6.30" duration="27.00" routeLength="187.70" waitingTime="0.00" waitingCount="0" stopTime="0.00" timeLoss="23.61" rerouteNo="0" devices="tripinfo_32" vType="DEFAULT_VEHTYPE" speedFactor="1.01" vaporized=""/>
    <tripinfo id="15" depart="18.00" departLane="5to4_0" departPos="5.10" departSpeed="0.00" departDelay="3.00" arrival="72.00" arrivalLane="4to7_0" arrivalPos="192.80" arrivalSpeed="28.39" duration="54.00" routeLength="394.70" waitingTime="15.00" waitingCount="1" stopTime="0.00" timeLoss="45.16" rerouteNo="0" devices="tripinfo_15" vType="DEFAULT_VEHTYPE" speedFactor="0.93" vaporized=""/>
    <tripinfo id="46" depart="53.00" departLane="5to4_0" departPos="5.10" departSpeed="0.00" departDelay="7.00" arrival="82.00" arrivalLane="4to3_0" arrivalPos="192.80" arrivalSpeed="22.08" duration="29.00" routeLength="394.90" waitingTime="0.00" waitingCount="0" stopTime="0.00" timeLoss="21.74" rerouteNo="0" devices="tripinfo_46" vType="DEFAULT_VEHTYPE" speedFactor="1.00" vaporized=""/>
    <tripinfo id="31" depart="32.00" departLane="4to5_0" departPos="5.10" departSpeed="0.00" departDelay="1.00" arrival="83.00" arrivalLane="4to7_0" arrivalPos="192.80" arrivalSpeed="12.64" duration="51.00" routeLength="592.17" waitingTime="0.00" waitingCount="0" stopTime="0.00" timeLoss="37.98" rerouteNo="0" devices="tripinfo_31" vType="DEFAULT_VEHTYPE" speedFactor="1.15" vaporized=""/>
    <tripinfo id="6" depart="6.00" departLane="1to4_0" departPos="5.10" departSpeed="0.00" departDelay="0.00" arrival="84.00" arrivalLane="3to4_0" arrivalPos="192.80" arrivalSpeed="7.86" duration="78.00" routeLength="587.00" waitingTime="20.00" waitingCount="1" stopTime="0.00" timeLoss="65.82" rerouteNo="0" devices="tripinfo_6" vType="DEFAULT_VEHTYPE" speedFactor="1.05" vaporized=""/>
    <tripinfo id="1" depart="1.00" departLane="4to1_0" departPos="5.10" departSpeed="0.00" departDelay="0.00" arrival="88.00" arrivalLane="3to4_0" arrivalPos="192.80" arrivalSpeed="11.23" duration="87.00" routeLength="784.47" waitingTime="17.00" waitingCount="1" stopTime="0.00" timeLoss="70.44" rerouteNo="0" devices="tripinfo_1" vType="DEFAULT_VEHTYPE" speedFactor="0.94" vaporized=""/>
    <tripinfo id="40" depart="44.00" departLane="4to5_0" departPos="5.10" departSpeed="0.00" departDelay="4.00" arrival="88.00" arrivalLane="4to1_0" arrivalPos="192.80" arrivalSpeed="27.83" duration="44.00" routeLength="587.00" waitingTime="0.00" waitingCount="0" stopTime="0.00" timeLoss="30.61" rerouteNo="0" devices="tripinfo_40" vType="DEFAULT_VEHTYPE" speedFactor="1.03" vaporized=""/>
    <tripinfo id="11" depart="11.00" departLane="4to1_0" departPos="5.10" departSpeed="0.00" departDelay="0.00" arrival="92.00" arrivalLane="3to4_0" arrivalPos="192.80" arrivalSpeed="13.95" duration="81.00" routeLength="784.47" waitingTime="9.00" waitingCount="1" stopTime="0.00" timeLoss="63.86" rerouteNo="0" devices="tripinfo_11" vType="DEFAULT_VEHTYPE" speedFactor="1.03" vaporized=""/>
    <tripinfo id="42" depart="50.00" departLane="4to3_0" departPos="5.10" departSpeed="0.00" departDelay="8.00" arrival="93.00" arrivalLane="3to4_0" arrivalPos="192.80" arrivalSpeed="13.85" duration="43.00" routeLength="385.17" waitingTime="3.00" waitingCount="1" stopTime="0.00" timeLoss="35.11" rerouteNo="0" devices="tripinfo_42" vType="DEFAULT_VEHTYPE" speedFactor="1.09" vaporized=""/>
    <tripinfo id="28" depart="28.00" departLane="3to4_0" departPos="5.10" departSpeed="0.00" departDelay="0.00" arrival="94.00" arrivalLane="4to7_0" arrivalPos="192.80" arrivalSpeed="30.01" duration="66.00" routeLength="389.53" waitingTime="27.00" waitingCount="2" stopTime="0.00" timeLoss="57.83" rerouteNo="0" devices="tripinfo_28" vType="DEFAULT_VEHTYPE" speedFactor="1.13" vaporized=""/>
    <tripinfo id="21" depart="23.00" departLane="3to4_0" departPos="5.10" departSpeed="0.00" departDelay="2.00" arrival="95.00" arrivalLane="4to1_0" arrivalPos="192.80" arrivalSpeed="7.53" duration="72.00" routeLength="394.70" waitingTime="29.00" waitingCount="2" stopTime="0.00" timeLoss="63.28" rerouteNo="0" devices="tripinfo_21" vType="DEFAULT_VEHTYPE" speedFactor="1.01" vaporized=""/>
    <tripinfo id="17" depart="24.00" departLane="4to3_0" departPos="5.10" departSpeed="0.00" departDelay="7.00" arrival="97.00" arrivalLane="4to5_0" arrivalPos="192.80" arrivalSpeed="30.12" duration="73.00" routeLength="592.37" waitingTime="18.00" waitingCount="1" stopTime="0.00" timeLoss="60.90" rerouteNo="0" devices="tripinfo_17" vType="DEFAULT_VEHTYPE" speedFactor="0.94" vaporized=""/>
    <tripinfo id="0" depart="0.00" departLane="4to7_0" departPos="5.10" departSpeed="0.00" departDelay="0.00" arrival="101.00" arrivalLane="1to4_0" arrivalPos="192.80" arrivalSpeed="8.29" duration="101.00" routeLength="789.84" waitingTime="34.00" waitingCount="1" stopTime="0.00" timeLoss="83.67" rerouteNo="0" devices="tripinfo_0" vType="DEFAULT_VEHTYPE" speedFactor="1.06" vaporized=""/>
    <tripinfo id="9" depart="9.00" departLane="5to4_0" departPos="5.10" departSpeed="0.00" departDelay="0.00" arrival="107.00" arrivalLane="1to4_0" arrivalPos="192.80" arrivalSpeed="7.71" duration="98.00" routeLength="587.00" waitingTime="39.00" waitingCount="2" stopTime="0.00" timeLoss="84.88" rerouteNo="0" devices="tripinfo_9" vType="DEFAULT_VEHTYPE" speedFactor="0.86" vaporized=""/>
    <tripinfo id="12" depart="27.00" departLane="7to4_0" departPos="5.10" departSpeed="0.00" departDelay="15.00" arrival="108.00" arrivalLane="4to1_0" arrivalPos="192.80" arrivalSpeed="30.65" duration="81.00" routeLength="394.90" waitingTime="49.00" waitingCount="1" stopTime="0.00" timeLoss="73.61" rerouteNo="0" devices="tripinfo_12" vType="DEFAULT_VEHTYPE" speedFactor="1.05" vaporized=""/>
    <tripinfo id="44" depart="71.00" departLane="1to4_0" departPos="5.10" departSpeed="0.00" departDelay="27.00" arrival="111.00" arrivalLane="1to4_0" arrivalPos="192.80" arrivalSpeed="10.82" duration="40.00" routeLength="187.70" waitingTime="16.00" waitingCount="1" stopTime="0.00" timeLoss="36.57" rerouteNo="0" devices="tripinfo_44" vType="DEFAULT_VEHTYPE" speedFactor="1.04" vaporized=""/>
    <tripinfo id="4" depart="4.00" departLane="4to3_0" departPos="5.10" departSpeed="0.00" departDelay="0.00" arrival="118.00" arrivalLane="1to4_0" arrivalPos="192.80" arrivalSpeed="6.59" duration="114.00" routeLength="789.64" waitingTime="32.00" waitingCount="2" stopTime="0.00" timeLoss="97.11" rerouteNo="0" devices="tripinfo_4" vType="DEFAULT_VEHTYPE" speedFactor="1.03" vaporized=""/>
    <tripinfo id="24" depart="24.00" departLane="4to7_0" departPos="5.10" departSpeed="0.00" departDelay="0.00" arrival="118.00" arrivalLane="4to1_0" arrivalPos="192.80" arrivalSpeed="5.39" duration="94.00" routeLength="592.37" waitingTime="39.00" waitingCount="1" stopTime="0.00" timeLoss="81.75" rerouteNo="0" devices="tripinfo_24" vType="DEFAULT_VEHTYPE" speedFactor="0.83" vaporized=""/>
    <tripinfo id="27" depart="27.00" departLane="4to7_0" departPos="5.10" departSpeed="0.00" departDelay="0.00" arrival="119.00" arrivalLane="4to5_0" arrivalPos="192.80" arrivalSpeed="30.54" duration="92.00" routeLength="587.00" waitingTime="37.00" waitingCount="1" stopTime="0.00" timeLoss="79.48" rerouteNo="0" devices="tripinfo_27" vType="DEFAULT_VEHTYPE" speedFactor="0.95" vaporized=""/>
    <tripinfo id="45" depart="74.00" departLane="1to4_0" departPos="5.10" departSpeed="0.00" departDelay="29.00" arrival="125.00" arrivalLane="4to7_0" arrivalPos="192.80" arrivalSpeed="9.10" duration="51.00" routeLength="394.90" waitingTime="14.00" waitingCount="1" stopTime="0.00" timeLoss="43.86" rerouteNo="0" devices="tripinfo_45" vType="DEFAULT_VEHTYPE" speedFactor="1.09" vaporized=""/>
    <tripinfo id="47" depart="77.00" departLane="1to4_0" departPos="5.10" departSpeed="0.00" departDelay="30.00" arrival="128.00" arrivalLane="4to3_0" arrivalPos="192.80" arrivalSpeed="27.82" duration="51.00" routeLength="389.53" waitingTime="12.00" waitingCount="1" stopTime="0.00" timeLoss="43.16" rerouteNo="0" devices="tripinfo_47" vType="DEFAULT_VEHTYPE" speedFactor="0.90" vaporized=""/>
    <tripinfo id="20" depart="21.00" departLane="4to7_0" departPos="5.10" departSpeed="0.00" departDelay="1.00" arrival="129.00" arrivalLane="1to4_0" arrivalPos="192.80" arrivalSpeed="26.98" duration="108.00" routeLength="789.84" waitingTime="43.00" waitingCount="1" stopTime="0.00" timeLoss="91.88" rerouteNo="0" devices="tripinfo_20" vType="DEFAULT_VEHTYPE" speedFactor="1.02" vaporized=""/>
    <tripinfo id="37" depart="37.00" departLane="4to7_0" departPos="5.10" departSpeed="0.00" departDelay="0.00" arrival="131.00" arrivalLane="4to3_0" arrivalPos="192.80" arrivalSpeed="28.32" duration="94.00" routeLength="592.17" waitingTime="36.00" waitingCount="2" stopTime="0.00" timeLoss="81.19" rerouteNo="0" devices="tripinfo_37" vType="DEFAULT_VEHTYPE" speedFactor="1.18" vaporized=""/>
    <tripinfo id="36" depart="56.00" departLane="7to4_0" departPos="5.10" departSpeed="0.00" departDelay="20.00" arrival="132.00" arrivalLane="4to1_0" arrivalPos="192.80" arrivalSpeed="28.95" duration="76.00" routeLength="394.90" waitingTime="34.00" waitingCount="2" stopTime="0.00" timeLoss="68.76" rerouteNo="0" devices="tripinfo_36" vType="DEFAULT_VEHTYPE" speedFactor="0.97" vaporized=""/>
    <tripinfo id="16" depart="21.00" departLane="4to5_0" departPos="5.10" departSpeed="0.00" departDelay="5.00" arrival="133.00" arrivalLane="7to4_0" arrivalPos="192.80" arrivalSpeed="6.91" duration="112.00" routeLength="789.64" waitingTime="15.00" waitingCount="3" stopTime="0.00" timeLoss="93.85" rerouteNo="0" devices="tripinfo_16" vType="DEFAULT_VEHTYPE" speedFactor="0.88" vaporized=""/>
    <tripinfo id="30" depart="30.00" departLane="7to4_0" departPos="5.10" departSpeed="0.00" departDelay="0.00" arrival="134.00" arrivalLane="4to7_0" arrivalPos="192.80" arrivalSpeed="37.17" duration="104.00" routeLength="799.57" waitingTime="47.00" waitingCount="1" stopTime="0.00" timeLoss="88.36" rerouteNo="0" devices="tripinfo_30" vType="DEFAULT_VEHTYPE" speedFactor="1.18" vaporized=""/>
    <tripinfo id="41" depart="53.00" departLane="4to5_0" departPos="5.10" departSpeed="0.00" departDelay="12.00" arrival="135.00" arrivalLane="7to4_0" arrivalPos="192.80" arrivalSpeed="8.65" duration="82.00" routeLength="789.64" waitingTime="5.00" waitingCount="2" stopTime="0.00" timeLoss="64.73" rerouteNo="0" devices="tripinfo_41" vType="DEFAULT_VEHTYPE" speedFactor="0.96" vaporized=""/>
    <tripinfo id="38" depart="59.00" departLane="7to4_0" departPos="5.10" departSpeed="0.00" departDelay="21.00" arrival="136.00" arrivalLane="4to3_0" arrivalPos="192.80" arrivalSpeed="29.37" duration="77.00" routeLength="394.70" waitingTime="32.00" waitingCount="2" stopTime="0.00" timeLoss="68.37" rerouteNo="0" devices="tripinfo_38" vType="DEFAULT_VEHTYPE" speedFactor="1.10" vaporized=""/>
    <tripinfo id="26" depart="32.00" departLane="4to1_0" departPos="5.10" departSpeed="0.00" departDelay="6.00" arrival="137.00" arrivalLane="7to4_0" arrivalPos="192.80" arrivalSpeed="9.99" duration="105.00" routeLength="789.84" waitingTime="31.00" waitingCount="1" stopTime="0.00" timeLoss="88.38" rerouteNo="0" devices="tripinfo_26" vType="DEFAULT_VEHTYPE" speedFactor="0.92" vaporized=""/>
    <tripinfo id="43" depart="62.00" departLane="7to4_0" departPos="5.10" departSpeed="0.00" departDelay="19.00" arrival="138.00" arrivalLane="4to5_0" arrivalPos="192.80" arrivalSpeed="28.43" duration="76.00" routeLength="389.53" waitingTime="29.00" waitingCount="2" stopTime="0.00" timeLoss="68.18" rerouteNo="0" devices="tripinfo_43" vType="DEFAULT_VEHTYPE" speedFactor="1.04" vaporized=""/>
    <tripinfo id="48" depart="67.00" departLane="7to4_0" departPos="5.10" departSpeed="0.00" departDelay="19.00" arrival="142.00" arrivalLane="4to5_0" arrivalPos="192.80" arrivalSpeed="28.24" duration="75.00" routeLength="389.53" waitingTime="27.00" waitingCount="2" stopTime="0.00" timeLoss="66.15" rerouteNo="0" devices="tripinfo_48" vType="DEFAULT_VEHTYPE" speedFactor="0.88" vaporized=""/>
    <tripinfo id="14" depart="15.00" departLane="5to4_0" departPos="5.10" departSpeed="0.00" departDelay="1.00" arrival="155.00" arrivalLane="4to5_0" arrivalPos="192.80" arrivalSpeed="29.75" duration="140.00" routeLength="799.57" waitingTime="61.00" waitingCount="3" stopTime="0.00" timeLoss="124.66" rerouteNo="0" devices="tripinfo_14" vType="DEFAULT_VEHTYPE" speedFactor="0.99" vaporized=""/>
    <tripinfo id="22" depart="35.00" departLane="1to4_0" departPos="5.10" departSpeed="0.00" departDelay="13.00" arrival="155.00" arrivalLane="3to4_0" arrivalPos="192.80" arrivalSpeed="7.33" duration="120.00" routeLength="587.00" waitingTime="63.00" waitingCount="2" stopTime="0.00" timeLoss="107.10" rerouteNo="0" devices="tripinfo_22" vType="DEFAULT_VEHTYPE" speedFactor="0.97" vaporized=""/>
    <tripinfo id="29" depart="52.00" departLane="3to4_0" departPos="5.10" departSpeed="0.00" departDelay="23.00" arrival="156.00" arrivalLane="4to3_0" arrivalPos="192.80" arrivalSpeed="27.00" duration="104.00" routeLength="799.57" waitingTime="34.00" waitingCount="2" stopTime="0.00" timeLoss="88.56" rerouteNo="0" devices="tripinfo_29" vType="DEFAULT_VEHTYPE" speedFactor="0.93" vaporized=""/>
    <tripinfo id="25" depart="25.00" departLane="4to1_0" departPos="5.10" departSpeed="0.00" departDelay="0.00" arrival="157.00" arrivalLane="3to4_0" arrivalPos="192.80" arrivalSpeed="9.17" duration="132.00" routeLength="784.47" waitingTime="53.00" waitingCount="2" stopTime="0.00" timeLoss="114.47" rerouteNo="0" devices="tripinfo_25" vType="DEFAULT_VEHTYPE" speedFactor="0.87" vaporized=""/>
    <tripinfo id="18" depart="21.00" departLane="5to4_0" departPos="5.10" departSpeed="0.00" departDelay="3.00" arrival="158.00" arrivalLane="4to5_0" arrivalPos="192.80" arrivalSpeed="29.70" duration="137.00" routeLength="799.57" waitingTime="54.00" waitingCount="2" stopTime="0.00" timeLoss="121.27" rerouteNo="0" devices="tripinfo_18" vType="DEFAULT_VEHTYPE" speedFactor="0.94" vaporized=""/>
    <tripinfo id="19" depart="24.00" departLane="5to4_0" departPos="5.10" departSpeed="0.00" departDelay="5.00" arrival="159.00" arrivalLane="4to5_0" arrivalPos="192.80" arrivalSpeed="28.62" duration="135.00" routeLength="799.57" waitingTime="51.00" waitingCount="2" stopTime="0.00" timeLoss="119.82" rerouteNo="0" devices="tripinfo_19" vType="DEFAULT_VEHTYPE" speedFactor="1.16" vaporized=""/>
    <tripinfo id="39" depart="40.00" departLane="4to1_0" departPos="5.10" departSpeed="0.00" departDelay="1.00" arrival="159.00" arrivalLane="3to4_0" arrivalPos="192.80" arrivalSpeed="11.38" duration="119.00" routeLength="784.47" waitingTime="37.00" waitingCount="2" stopTime="0.00" timeLoss="101.85" rerouteNo="0" devices="tripinfo_39" vType="DEFAULT_VEHTYPE" speedFactor="0.90" vaporized=""/>
    <tripinfo id="49" depart="72.00" departLane="7to4_0" departPos="5.10" departSpeed="0.00" departDelay="23.00" arrival="164.00" arrivalLane="5to4_0" arrivalPos="192.80" arrivalSpeed="27.25" duration="92.00" routeLength="587.00" waitingTime="22.00" waitingCount="2" stopTime="0.00" timeLoss="78.05" rerouteNo="0" devices="tripinfo_49" vType="DEFAULT_VEHTYPE" speedFactor="0.85" vaporized=""/>
    <tripinfo id="33" depart="82.00" departLane="3to4_0" departPos="5.10" departSpeed="0.00" departDelay="49.00" arrival="179.00" arrivalLane="1to4_0" arrivalPos="192.80" arrivalSpeed="26.88" duration="97.00" routeLength="592.17" waitingTime="41.00" waitingCount="1" stopTime="0.00" timeLoss="84.47" rerouteNo="0" devices="tripinfo_33" vType="DEFAULT_VEHTYPE" speedFactor="1.17" vaporized=""/>
    <tripinfo id="35" depart="85.00" departLane="3to4_0" departPos="5.10" departSpeed="0.00" departDelay="50.00" arrival="193.00" arrivalLane="7to4_0" arrivalPos="192.80" arrivalSpeed="5.44" duration="108.00" routeLength="587.00" waitingTime="46.00" waitingCount="2" stopTime="0.00" timeLoss="96.01" rerouteNo="0" devices="tripinfo_35" vType="DEFAULT_VEHTYPE" speedFactor="1.02" vaporized=""/>
    <tripinfo id="23" depart="68.00" departLane="1to4_0" departPos="5.10" departSpeed="0.00" departDelay="45.00" arrival="203.00" arrivalLane="4to1_0" arrivalPos="192.80" arrivalSpeed="29.41" duration="135.00" routeLength="799.57" waitingTime="65.00" waitingCount="2" stopTime="0.00" timeLoss="119.46" rerouteNo="0" devices="tripinfo_23" vType="DEFAULT_VEHTYPE" speedFactor="0.89" vaporized=""/>
</tripinfos>
